
                                 *****************
                                 * O   R   C   A *
                                 *****************

           --- An Ab Initio, DFT and Semiempirical electronic structure package ---

                  #######################################################
                  #                        -***-                        #
                  #  Department of molecular theory and spectroscopy    #
                  #              Directorship: Frank Neese              #
                  # Max Planck Institute for Chemical Energy Conversion #
                  #                  D-45470 Muelheim/Ruhr              #
                  #                       Germany                       #
                  #                                                     #
                  #                  All rights reserved                #
                  #                        -***-                        #
                  #######################################################


                         Program Version 4.0.1.2 - RELEASE -


 With contributions from (in alphabetic order):
   Daniel Aravena         : Magnetic Properties
   Michael Atanasov       : Ab Initio Ligand Field Theory
   Ute Becker             : Parallelization
   Martin Brehm           : Molecular dynamics
   Dmytro Bykov           : SCF Hessian
   Vijay G. Chilkuri      : MRCI spin determinant printing
   Dipayan Datta          : RHF DLPNO-CCSD density
   Achintya Kumar Dutta   : EOM-CC, STEOM-CC
   Dmitry Ganyushin       : Spin-Orbit,Spin-Spin,Magnetic field MRCI
   Yang Guo               : DLPNO-NEVPT2, CIM, IAO-localization
   Andreas Hansen         : Spin unrestricted coupled pair/coupled cluster methods
   Lee Huntington         : MR-EOM, pCC
   Robert Izsak           : Overlap fitted RIJCOSX, COSX-SCS-MP3, EOM
   Christian Kollmar      : KDIIS, OOCD, Brueckner-CCSD(T), CCSD density
   Simone Kossmann        : Meta GGA functionals, TD-DFT gradient, OOMP2, MP2 Hessian
   Martin Krupicka        : AUTO-CI
   Dagmar Lenk            : GEPOL surface
   Dimitrios Liakos       : Extrapolation schemes; parallel MDCI
   Dimitrios Manganas     : ROCIS; embedding schemes
   Dimitrios Pantazis     : SARC Basis sets
   Taras Petrenko         : DFT Hessian,TD-DFT gradient, ASA, ECA, R-Raman, ABS, FL, XAS/XES, NRVS
   Peter Pinski           : DLPNO-MP2
   Christoph Reimann      : Effective Core Potentials
   Marius Retegan         : Local ZFS, SOC
   Christoph Riplinger    : Optimizer, TS searches, QM/MM, DLPNO-CCSD(T), (RO)-DLPNO pert. Triples
   Tobias Risthaus        : Range-separated hybrids, TD-DFT gradient, RPA, STAB
   Michael Roemelt        : Restricted open shell CIS
   Masaaki Saitow         : Open-shell DLPNO
   Barbara Sandhoefer     : DKH picture change effects
   Kantharuban Sivalingam : CASSCF convergence, NEVPT2, FIC-MRCI
   Georgi Stoychev        : AutoAux
   Boris Wezisla          : Elementary symmetry handling
   Frank Wennmohs         : Technical directorship


 We gratefully acknowledge several colleagues who have allowed us to
 interface, adapt or use parts of their codes:
   Stefan Grimme, W. Hujo, H. Kruse,             : VdW corrections, initial TS optimization,
                  C. Bannwarth                     DFT functionals, gCP, sTDA/sTD-DF
   Ed Valeev                                     : LibInt (2-el integral package), F12 methods
   Garnet Chan, S. Sharma, J. Yang, R. Olivares  : DMRG
   Ulf Ekstrom                                   : XCFun DFT Library
   Mihaly Kallay                                 : mrcc  (arbitrary order and MRCC methods)
   Andreas Klamt, Michael Diedenhofen            : otool_cosmo (COSMO solvation model)
   Jiri Pittner, Ondrej Demel                    : Mk-CCSD
   Frank Weinhold                                : gennbo (NPA and NBO analysis)
   Christopher J. Cramer and Donald G. Truhlar   : smd solvation model


 Your calculation uses the libint2 library for the computation of 2-el integrals
 For citations please refer to: http://libint.valeyev.net

 This ORCA versions uses:
   CBLAS   interface :  Fast vector & matrix operations
   LAPACKE interface :  Fast linear algebra routines
   SCALAPACK package :  Parallel linear algebra routines


Your calculation utilizes the basis: def2-TZVPP
   F. Weigend and R. Ahlrichs, Phys. Chem. Chem. Phys. 7, 3297 (2005).

================================================================================
                                        WARNINGS
                       Please study these warnings very carefully!
================================================================================

Warning: TCutStore was < 0. Adjusted to Thresh (uncritical)

WARNING: Geometry Optimization
  ===> : Switching off AutoStart
         For restart on a previous wavefunction, please use MOREAD

INFO   : the flag for use of LIBINT has been found!

================================================================================
                                       INPUT FILE
================================================================================
NAME = /gpfs/cfel/group/cmi/beegfs.migration/yachmena/ben_cl/benzal_chloride_b3lyp_def2tzvpp_gopt.inp
|  1> ! B3LYP TIGHTSCF TIGHTOPT OPT def2-TZVPP
|  2> 
|  3> %MaxCore 100000
|  4> 
|  5> * xyz 0 1
|  6>   Cl        2.50507       -0.20926       -1.45509
|  7>   Cl        2.50501       -0.21118        1.45498
|  8>    C        0.26361        0.22529        0.00018
|  9>    C       -0.64611        1.29739        0.00084
| 10>    C       -0.23132       -1.09202       -0.00068
| 11>    C        1.74751        0.48792        0.00039
| 12>    C       -2.02345        1.05502        0.00065
| 13>    C       -1.60927       -1.32919       -0.00087
| 14>    C       -2.50457       -0.25670       -0.00020
| 15>    H       -0.29197        2.32075        0.00151
| 16>    H        0.44988       -1.93393       -0.00120
| 17>    H        1.95819        1.57860        0.00111
| 18>    H       -2.71820        1.88499        0.00116
| 19>    H       -1.98295       -2.34499       -0.00153
| 20>    H       -3.57094       -0.44198       -0.00035
| 21> *
| 22> 
| 23> 
| 24> 
| 25> 
| 26>                          ****END OF INPUT****
================================================================================

                       *****************************
                       * Geometry Optimization Run *
                       *****************************

Geometry optimization settings:
Update method            Update   .... BFGS
Choice of coordinates    CoordSys .... Redundant Internals
Initial Hessian          InHess   .... Almoef's Model

Convergence Tolerances:
Energy Change            TolE     ....  1.0000e-06 Eh
Max. Gradient            TolMAXG  ....  1.0000e-04 Eh/bohr
RMS Gradient             TolRMSG  ....  3.0000e-05 Eh/bohr
Max. Displacement        TolMAXD  ....  1.0000e-03 bohr
RMS Displacement         TolRMSD  ....  6.0000e-04 bohr

------------------------------------------------------------------------------
                        ORCA OPTIMIZATION COORDINATE SETUP
------------------------------------------------------------------------------

The optimization will be done in new redundant internal coordinates
Making redundant internal coordinates   ...  (new redundants) done
Evaluating the initial hessian          ...  (Almloef) done
Evaluating the coordinates              ...  done
Calculating the B-matrix                .... done
Calculating the G-matrix                .... done
Diagonalizing the G-matrix              .... done
The first mode is                       ....   30
The number of degrees of freedom        ....   39

    -----------------------------------------------------------------
                    Redundant Internal Coordinates


    -----------------------------------------------------------------
         Definition                    Initial Value    Approx d2E/dq
    -----------------------------------------------------------------
      1. B(C   3,C   2)                  1.4061         0.589013   
      2. B(C   4,C   2)                  1.4072         0.586501   
      3. B(C   5,Cl  0)                  1.7828         0.331166   
      4. B(C   5,C   2)                  1.5070         0.406568   
      5. B(C   5,Cl  1)                  1.7828         0.331166   
      6. B(C   6,C   3)                  1.3985         0.605583   
      7. B(C   7,C   4)                  1.3982         0.606230   
      8. B(C   8,C   7)                  1.3971         0.608784   
      9. B(C   8,C   6)                  1.3972         0.608552   
     10. B(H   9,C   3)                  1.0829         0.369610   
     11. B(H  10,C   4)                  1.0830         0.369507   
     12. B(H  11,C   5)                  1.1108         0.333558   
     13. B(H  12,C   6)                  1.0824         0.370334   
     14. B(H  13,C   7)                  1.0824         0.370360   
     15. B(H  14,C   8)                  1.0823         0.370368   
     16. A(C   3,C   2,C   4)          119.0922         0.425823   
     17. A(C   3,C   2,C   5)          120.2793         0.399016   
     18. A(C   4,C   2,C   5)          120.6285         0.398716   
     19. A(C   2,C   3,H   9)          120.5956         0.351408   
     20. A(C   2,C   3,C   6)          120.3358         0.428273   
     21. A(C   6,C   3,H   9)          119.0686         0.353061   
     22. A(C   2,C   4,H  10)          120.4314         0.351137   
     23. A(C   2,C   4,C   7)          120.3578         0.428027   
     24. A(C   7,C   4,H  10)          119.2108         0.353108   
     25. A(Cl  1,C   5,C   2)          110.4973         0.376832   
     26. A(Cl  0,C   5,C   2)          110.4969         0.376832   
     27. A(Cl  0,C   5,Cl  1)          109.4027         0.379624   
     28. A(C   2,C   5,H  11)          110.9695         0.324749   
     29. A(Cl  1,C   5,H  11)          107.6923         0.327036   
     30. A(Cl  0,C   5,H  11)          107.6920         0.327036   
     31. A(C   8,C   6,H  12)          119.9257         0.353470   
     32. A(C   3,C   6,H  12)          119.9518         0.353178   
     33. A(C   3,C   6,C   8)          120.1224         0.430789   
     34. A(C   8,C   7,H  13)          119.9484         0.353497   
     35. A(C   4,C   7,H  13)          119.9629         0.353246   
     36. A(C   4,C   7,C   8)          120.0887         0.430901   
     37. A(C   7,C   8,H  14)          119.9980         0.353499   
     38. A(C   6,C   8,H  14)          119.9990         0.353476   
     39. A(C   6,C   8,C   7)          120.0030         0.431197   
     40. D(C   6,C   3,C   2,C   4)      0.0003         0.023871   
     41. D(H   9,C   3,C   2,C   4)    179.9998         0.023871   
     42. D(C   6,C   3,C   2,C   5)   -179.9998         0.023871   
     43. D(H   9,C   3,C   2,C   5)     -0.0003         0.023871   
     44. D(C   7,C   4,C   2,C   5)    180.0000         0.023658   
     45. D(C   7,C   4,C   2,C   3)     -0.0002         0.023658   
     46. D(H  10,C   4,C   2,C   3)    180.0000         0.023658   
     47. D(H  10,C   4,C   2,C   5)      0.0001         0.023658   
     48. D(H  11,C   5,C   2,C   3)      0.0009         0.012250   
     49. D(H  11,C   5,C   2,C   4)   -179.9993         0.012250   
     50. D(Cl  1,C   5,C   2,C   4)    -60.6107         0.012250   
     51. D(Cl  0,C   5,C   2,C   4)     60.6129         0.012250   
     52. D(Cl  1,C   5,C   2,C   3)    119.3895         0.012250   
     53. D(Cl  0,C   5,C   2,C   3)   -119.3870         0.012250   
     54. D(C   8,C   6,C   3,C   2)     -0.0001         0.025307   
     55. D(H  12,C   6,C   3,H   9)      0.0006         0.025307   
     56. D(H  12,C   6,C   3,C   2)   -179.9999         0.025307   
     57. D(C   8,C   6,C   3,H   9)   -179.9996         0.025307   
     58. D(H  13,C   7,C   4,H  10)      0.0000         0.025364   
     59. D(H  13,C   7,C   4,C   2)   -179.9998         0.025364   
     60. D(C   8,C   7,C   4,H  10)    179.9996         0.025364   
     61. D(C   8,C   7,C   4,C   2)     -0.0002         0.025364   
     62. D(H  14,C   8,C   7,H  13)     -0.0005         0.025591   
     63. D(H  14,C   8,C   7,C   4)    179.9999         0.025591   
     64. D(C   6,C   8,C   7,H  13)   -179.9999         0.025591   
     65. D(C   6,C   8,C   7,C   4)      0.0005         0.025591   
     66. D(H  14,C   8,C   6,H  12)      0.0001         0.025570   
     67. D(H  14,C   8,C   6,C   3)   -179.9997         0.025570   
     68. D(C   7,C   8,C   6,H  12)    179.9995         0.025570   
     69. D(C   7,C   8,C   6,C   3)     -0.0004         0.025570   
    -----------------------------------------------------------------

Number of atoms                         .... 15
Number of degrees of freedom            .... 69

         *************************************************************
         *                GEOMETRY OPTIMIZATION CYCLE   1            *
         *************************************************************
---------------------------------
CARTESIAN COORDINATES (ANGSTROEM)
---------------------------------
  Cl     2.505070   -0.209260   -1.455090
  Cl     2.505010   -0.211180    1.454980
  C      0.263610    0.225290    0.000180
  C     -0.646110    1.297390    0.000840
  C     -0.231320   -1.092020   -0.000680
  C      1.747510    0.487920    0.000390
  C     -2.023450    1.055020    0.000650
  C     -1.609270   -1.329190   -0.000870
  C     -2.504570   -0.256700   -0.000200
  H     -0.291970    2.320750    0.001510
  H      0.449880   -1.933930   -0.001200
  H      1.958190    1.578600    0.001110
  H     -2.718200    1.884990    0.001160
  H     -1.982950   -2.344990   -0.001530
  H     -3.570940   -0.441980   -0.000350

----------------------------
CARTESIAN COORDINATES (A.U.)
----------------------------
  NO LB      ZA    FRAG     MASS         X           Y           Z
   0 Cl   17.0000    0    35.453    4.733896   -0.395444   -2.749722
   1 Cl   17.0000    0    35.453    4.733783   -0.399072    2.749514
   2 C     6.0000    0    12.011    0.498151    0.425736    0.000340
   3 C     6.0000    0    12.011   -1.220971    2.451712    0.001587
   4 C     6.0000    0    12.011   -0.437131   -2.063619   -0.001285
   5 C     6.0000    0    12.011    3.302315    0.922035    0.000737
   6 C     6.0000    0    12.011   -3.823766    1.993699    0.001228
   7 C     6.0000    0    12.011   -3.041080   -2.511805   -0.001644
   8 C     6.0000    0    12.011   -4.732951   -0.485093   -0.000378
   9 H     1.0000    0     1.008   -0.551743    4.385582    0.002853
  10 H     1.0000    0     1.008    0.850150   -3.654598   -0.002268
  11 H     1.0000    0     1.008    3.700443    2.983122    0.002098
  12 H     1.0000    0     1.008   -5.136654    3.562115    0.002192
  13 H     1.0000    0     1.008   -3.747232   -4.431389   -0.002891
  14 H     1.0000    0     1.008   -6.748099   -0.835221   -0.000661

--------------------------------
INTERNAL COORDINATES (ANGSTROEM)
--------------------------------
 Cl     0   0   0     0.000000000000     0.00000000     0.00000000
 Cl     1   0   0     2.910070634005     0.00000000     0.00000000
 C      1   2   0     2.707542687937    57.49328627     0.00000000
 C      3   1   2     1.406054523836   131.16686282   123.86503196
 C      3   1   2     1.407217851152    98.08221487   264.80913996
 C      3   1   2     1.506961768261    38.08070589    35.58357528
 C      4   3   1     1.398502316266   120.33579632   134.44846384
 C      5   3   1     1.398211660479   120.35778021   212.87432415
 C      8   5   3     1.397067406749   120.08871148     0.00000000
 H      4   3   1     1.082904094599   120.59557134   314.44794128
 H      5   3   1     1.082980220734   120.43141745    32.87447271
 H      6   3   1     1.110841772351   110.96946176   119.38789071
 H      7   4   3     1.082371481285   119.95182575   180.00007249
 H      8   5   3     1.082352446295   119.96288516   180.00017983
 H      9   8   5     1.082346376074   119.99801323   179.99988766

---------------------------
INTERNAL COORDINATES (A.U.)
---------------------------
 Cl     0   0   0     0.000000000000     0.00000000     0.00000000
 Cl     1   0   0     5.499236528637     0.00000000     0.00000000
 C      1   2   0     5.116514176102    57.49328627     0.00000000
 C      3   1   2     2.657057979411   131.16686282   123.86503196
 C      3   1   2     2.659256349442    98.08221487   264.80913996
 C      3   1   2     2.847745036303    38.08070589    35.58357528
 C      4   3   1     2.642786375396   120.33579632   134.44846384
 C      5   3   1     2.642237115561   120.35778021   212.87432415
 C      8   5   3     2.640074789383   120.08871148     0.00000000
 H      4   3   1     2.046392168095   120.59557134   314.44794128
 H      5   3   1     2.046536025640   120.43141745    32.87447271
 H      6   3   1     2.099186727863   110.96946176   119.38789071
 H      7   4   3     2.045385674796   119.95182575   180.00007249
 H      8   5   3     2.045349703877   119.96288516   180.00017983
 H      9   8   5     2.045338232822   119.99801323   179.99988766

---------------------
BASIS SET INFORMATION
---------------------
There are 3 groups of distinct atoms

 Group   1 Type Cl  : 14s9p3d1f contracted to 5s5p3d1f pattern {73211/51111/111/1}
 Group   2 Type C   : 11s6p2d1f contracted to 5s3p2d1f pattern {62111/411/11/1}
 Group   3 Type H   : 5s2p1d contracted to 3s2p1d pattern {311/11/1}

Atom   0Cl   basis set group =>   1
Atom   1Cl   basis set group =>   1
Atom   2C    basis set group =>   2
Atom   3C    basis set group =>   2
Atom   4C    basis set group =>   2
Atom   5C    basis set group =>   2
Atom   6C    basis set group =>   2
Atom   7C    basis set group =>   2
Atom   8C    basis set group =>   2
Atom   9H    basis set group =>   3
Atom  10H    basis set group =>   3
Atom  11H    basis set group =>   3
Atom  12H    basis set group =>   3
Atom  13H    basis set group =>   3
Atom  14H    basis set group =>   3
------------------------------------------------------------------------------
                           ORCA GTO INTEGRAL CALCULATION
------------------------------------------------------------------------------

                         BASIS SET STATISTICS AND STARTUP INFO

 # of primitive gaussian shells          ...  242
 # of primitive gaussian functions       ...  544
 # of contracted shells                  ...  141
 # of contracted basis functions         ...  385
 Highest angular momentum                ...    3
 Maximum contraction depth               ...    7
 Integral package used                   ... LIBINT
 Integral threshhold            Thresh   ...  2.500e-11
 Primitive cut-off              TCut     ...  2.500e-12


------------------------------ INTEGRAL EVALUATION ----------------------------


 * One electron integrals 
 Pre-screening matrix                    ... done
 Shell pair data                         ... done (   0.005 sec)

-------------------------------------------------------------------------------
                                 ORCA SCF
-------------------------------------------------------------------------------

------------
SCF SETTINGS
------------
Hamiltonian:
 Density Functional     Method          .... DFT(GTOs)
 Exchange Functional    Exchange        .... B88
   X-Alpha parameter    XAlpha          ....  0.666667
   Becke's b parameter  XBeta           ....  0.004200
 Correlation Functional Correlation     .... LYP
 LDA part of GGA corr.  LDAOpt          .... VWN-5
 Gradients option       PostSCFGGA      .... off
 Hybrid DFT is turned on
   Fraction HF Exchange ScalHFX         ....  0.200000
   Scaling of DF-GGA-X  ScalDFX         ....  0.720000
   Scaling of DF-GGA-C  ScalDFC         ....  0.810000
   Scaling of DF-LDA-C  ScalLDAC        ....  1.000000
   Perturbative correction              ....  0.000000
   NL short-range parameter             ....  4.800000


General Settings:
 Integral files         IntName         .... /gpfs/cfel/group/cmi/beegfs.migration/yachmena/ben_cl/benzal_chloride_b3lyp_def2tzvpp_gopt
 Hartree-Fock type      HFTyp           .... RHF
 Total Charge           Charge          ....    0
 Multiplicity           Mult            ....    1
 Number of Electrons    NEL             ....   82
 Basis Dimension        Dim             ....  385
 Nuclear Repulsion      ENuc            ....    558.0904267967 Eh

Convergence Acceleration:
 DIIS                   CNVDIIS         .... on
   Start iteration      DIISMaxIt       ....    12
   Startup error        DIISStart       ....  0.200000
   # of expansion vecs  DIISMaxEq       ....     5
   Bias factor          DIISBfac        ....   1.050
   Max. coefficient     DIISMaxC        ....  10.000
 Newton-Raphson         CNVNR           .... off
 SOSCF                  CNVSOSCF        .... on
   Start iteration      SOSCFMaxIt      ....   150
   Startup grad/error   SOSCFStart      ....  0.003300
 Level Shifting         CNVShift        .... on
   Level shift para.    LevelShift      ....    0.2500
   Turn off err/grad.   ShiftErr        ....    0.0010
 Zerner damping         CNVZerner       .... off
 Static damping         CNVDamp         .... on
   Fraction old density DampFac         ....    0.7000
   Max. Damping (<1)    DampMax         ....    0.9800
   Min. Damping (>=0)   DampMin         ....    0.0000
   Turn off err/grad.   DampErr         ....    0.1000
 Fernandez-Rico         CNVRico         .... off

SCF Procedure:
 Maximum # iterations   MaxIter         ....   125
 SCF integral mode      SCFMode         .... Direct
   Integral package                     .... LIBINT
 Reset frequeny         DirectResetFreq ....    20
 Integral Threshold     Thresh          ....  2.500e-11 Eh
 Primitive CutOff       TCut            ....  2.500e-12 Eh

Convergence Tolerance:
 Convergence Check Mode ConvCheckMode   .... Total+1el-Energy
 Convergence forced     ConvForced      .... 0
 Energy Change          TolE            ....  1.000e-08 Eh
 1-El. energy change                    ....  1.000e-05 Eh
 Orbital Gradient       TolG            ....  1.000e-05
 Orbital Rotation angle TolX            ....  1.000e-05
 DIIS Error             TolErr          ....  5.000e-07


Diagonalization of the overlap matrix:
Smallest eigenvalue                        ... 9.140e-06
Time for diagonalization                   ...    0.038 sec
Threshold for overlap eigenvalues          ... 1.000e-08
Number of eigenvalues below threshold      ... 0
Time for construction of square roots      ...    0.017 sec
Total time needed                          ...    0.056 sec

-------------------
DFT GRID GENERATION
-------------------

General Integration Accuracy     IntAcc      ...  4.340
Radial Grid Type                 RadialGrid  ... Gauss-Chebyshev
Angular Grid (max. acc.)         AngularGrid ... Lebedev-110
Angular grid pruning method      GridPruning ... 3 (G Style)
Weight generation scheme         WeightScheme... Becke
Basis function cutoff            BFCut       ...    1.0000e-11
Integration weight cutoff        WCut        ...    1.0000e-14
Grids for H and He will be reduced by one unit

# of grid points (after initial pruning)     ...  20044 (   0.0 sec)
# of grid points (after weights+screening)   ...  18655 (   0.0 sec)
nearest neighbour list constructed           ...    0.0 sec
Grid point re-assignment to atoms done       ...    0.0 sec
Grid point division into batches done        ...    0.0 sec
Reduced shell lists constructed in    0.6 sec

Total number of grid points                  ...    18655
Total number of batches                      ...      298
Average number of points per batch           ...       62
Average number of grid points per atom       ...     1244
Average number of shells per batch           ...    88.58 (62.82%)
Average number of basis functions per batch  ...   245.84 (63.85%)
Average number of large shells per batch     ...    68.42 (77.24%)
Average number of large basis fcns per batch ...   186.81 (75.99%)
Maximum spatial batch extension              ...  19.22, 26.30, 22.23 au
Average spatial batch extension              ...   3.63,  3.84,  4.22 au

Time for grid setup =    0.691 sec

------------------------------
INITIAL GUESS: MODEL POTENTIAL
------------------------------
Loading Hartree-Fock densities                     ... done
Calculating cut-offs                               ... done
Setting up the integral package                    ... done
Initializing the effective Hamiltonian             ... done
Starting the Coulomb interaction                   ... done (   0.8 sec)
Reading the grid                                   ... done
Mapping shells                                     ... done
Starting the XC term evaluation                    ... done (   1.3 sec)
  promolecular density results
     # of electrons  =     82.001396625
     EX              =    -92.809718205
     EC              =     -3.017439141
     EX+EC           =    -95.827157346
Transforming the Hamiltonian                       ... done (   0.0 sec)
Diagonalizing the Hamiltonian                      ... done (   0.0 sec)
Back transforming the eigenvectors                 ... done (   0.0 sec)
Now organizing SCF variables                       ... done
                      ------------------
                      INITIAL GUESS DONE (   2.9 sec)
                      ------------------
--------------
SCF ITERATIONS
--------------
ITER       Energy         Delta-E        Max-DP      RMS-DP      [F,P]     Damp
               ***  Starting incremental Fock matrix formation  ***
  0  -1190.4418939521   0.000000000000 0.02890906  0.00062566  0.1497098 0.7000
  1  -1190.5145861867  -0.072692234661 0.01981182  0.00045796  0.0765340 0.7000
                               ***Turning on DIIS***
  2  -1190.5458864990  -0.031300312254 0.04129521  0.00084089  0.0307753 0.0000
  3  -1190.5910648195  -0.045178320469 0.01156800  0.00029565  0.0445559 0.0000
  4  -1190.6031268545  -0.012062034999 0.00565968  0.00011372  0.0068005 0.0000
                      *** Initiating the SOSCF procedure ***
                           *** Shutting down DIIS ***
                      *** Re-Reading the Fockian *** 
                      *** Removing any level shift *** 
ITER      Energy       Delta-E        Grad      Rot      Max-DP    RMS-DP
  5  -1190.60365331  -0.0005264571  0.000637  0.000637  0.001797  0.000048
               *** Restarting incremental Fock matrix formation ***
  6  -1190.60367956  -0.0000262497  0.000455  0.000911  0.001586  0.000041
  7  -1190.60367283   0.0000067357  0.000944  0.000648  0.000547  0.000012
  8  -1190.60368494  -0.0000121121  0.000092  0.000384  0.000172  0.000005
  9  -1190.60368465   0.0000002889  0.000132  0.000223  0.000113  0.000002
 10  -1190.60368515  -0.0000005060  0.000010  0.000025  0.000048  0.000001
 11  -1190.60368515   0.0000000023  0.000015  0.000017  0.000018  0.000000
                  ***Gradient check signals convergence***
              ***Rediagonalizing the Fockian in SOSCF/NRSCF***

               *****************************************************
               *                     SUCCESS                       *
               *           SCF CONVERGED AFTER  12 CYCLES          *
               *****************************************************

Setting up the final grid:

General Integration Accuracy     IntAcc      ...  4.670
Radial Grid Type                 RadialGrid  ... Gauss-Chebyshev
Angular Grid (max. acc.)         AngularGrid ... Lebedev-302
Angular grid pruning method      GridPruning ... 3 (G Style)
Weight generation scheme         WeightScheme... Becke
Basis function cutoff            BFCut       ...    1.0000e-11
Integration weight cutoff        WCut        ...    1.0000e-14
Grids for H and He will be reduced by one unit

# of grid points (after initial pruning)     ...  77324 (   0.0 sec)
# of grid points (after weights+screening)   ...  70992 (   0.2 sec)
nearest neighbour list constructed           ...    0.0 sec
Grid point re-assignment to atoms done       ...    0.0 sec
Grid point division into batches done        ...    0.3 sec
Reduced shell lists constructed in    2.5 sec

Total number of grid points                  ...    70992
Total number of batches                      ...     1118
Average number of points per batch           ...       63
Average number of grid points per atom       ...     4733
Average number of shells per batch           ...    80.69 (57.22%)
Average number of basis functions per batch  ...   222.41 (57.77%)
Average number of large shells per batch     ...    61.17 (75.81%)
Average number of large basis fcns per batch ...   165.26 (74.31%)
Maximum spatial batch extension              ...  17.41, 21.70, 19.55 au
Average spatial batch extension              ...   2.53,  2.64,  2.73 au

Final grid set up in    2.7 sec
Final integration                            ... done (   4.6 sec)
Change in XC energy                          ...     0.000142617
Integrated number of electrons               ...    81.999937134
Previous integrated no of electrons          ...    82.004294268

----------------
TOTAL SCF ENERGY
----------------

Total Energy       :        -1190.60354255 Eh          -32397.96947 eV

Components:
Nuclear Repulsion  :          558.09042680 Eh           15186.41258 eV
Electronic Energy  :        -1748.69396934 Eh          -47584.38205 eV
One Electron Energy:        -2744.16096817 Eh          -74672.41622 eV
Two Electron Energy:          995.46699883 Eh           27088.03417 eV

Virial components:
Potential Energy   :        -2378.62524118 Eh          -64725.68340 eV
Kinetic Energy     :         1188.02169863 Eh           32327.71393 eV
Virial Ratio       :            2.00217323


DFT components:
N(Alpha)           :       40.999968567010 electrons
N(Beta)            :       40.999968567010 electrons
N(Total)           :       81.999937134020 electrons
E(X)               :      -74.238603183718 Eh       
E(C)               :       -3.548221033614 Eh       
E(XC)              :      -77.786824217333 Eh       

---------------
SCF CONVERGENCE
---------------

  Last Energy change         ...   -1.0086e-08  Tolerance :   1.0000e-08
  Last MAX-Density change    ...    1.1457e-05  Tolerance :   1.0000e-07
  Last RMS-Density change    ...    1.5902e-07  Tolerance :   5.0000e-09
  Last Orbital Gradient      ...    1.8118e-06  Tolerance :   1.0000e-05
  Last Orbital Rotation      ...    4.2894e-06  Tolerance :   1.0000e-05

             **** THE GBW FILE WAS UPDATED (/gpfs/cfel/group/cmi/beegfs.migration/yachmena/ben_cl/benzal_chloride_b3lyp_def2tzvpp_gopt.gbw) ****
             **** DENSITY FILE WAS UPDATED (/gpfs/cfel/group/cmi/beegfs.migration/yachmena/ben_cl/benzal_chloride_b3lyp_def2tzvpp_gopt.scfp.tmp) ****
             **** ENERGY FILE WAS UPDATED (/gpfs/cfel/group/cmi/beegfs.migration/yachmena/ben_cl/benzal_chloride_b3lyp_def2tzvpp_gopt.en.tmp) ****
----------------
ORBITAL ENERGIES
----------------

  NO   OCC          E(Eh)            E(eV) 
   0   2.0000    -101.524627     -2762.6255 
   1   2.0000    -101.524623     -2762.6254 
   2   2.0000     -10.299689      -280.2688 
   3   2.0000     -10.206200      -277.7248 
   4   2.0000     -10.193654      -277.3834 
   5   2.0000     -10.189500      -277.2704 
   6   2.0000     -10.188764      -277.2504 
   7   2.0000     -10.188060      -277.2312 
   8   2.0000     -10.187545      -277.2172 
   9   2.0000      -9.457214      -257.3439 
  10   2.0000      -9.457206      -257.3437 
  11   2.0000      -7.219011      -196.4393 
  12   2.0000      -7.219003      -196.4391 
  13   2.0000      -7.209983      -196.1936 
  14   2.0000      -7.209980      -196.1935 
  15   2.0000      -7.209709      -196.1862 
  16   2.0000      -7.209708      -196.1861 
  17   2.0000      -0.913441       -24.8560 
  18   2.0000      -0.861575       -23.4446 
  19   2.0000      -0.821559       -22.3557 
  20   2.0000      -0.768187       -20.9034 
  21   2.0000      -0.758975       -20.6528 
  22   2.0000      -0.667940       -18.1756 
  23   2.0000      -0.621901       -16.9228 
  24   2.0000      -0.593162       -16.1408 
  25   2.0000      -0.531252       -14.4561 
  26   2.0000      -0.493519       -13.4293 
  27   2.0000      -0.476325       -12.9615 
  28   2.0000      -0.453381       -12.3371 
  29   2.0000      -0.444045       -12.0831 
  30   2.0000      -0.440662       -11.9910 
  31   2.0000      -0.432145       -11.7593 
  32   2.0000      -0.379062       -10.3148 
  33   2.0000      -0.372819       -10.1449 
  34   2.0000      -0.360601        -9.8125 
  35   2.0000      -0.327160        -8.9025 
  36   2.0000      -0.326494        -8.8843 
  37   2.0000      -0.305951        -8.3253 
  38   2.0000      -0.304653        -8.2900 
  39   2.0000      -0.269135        -7.3235 
  40   2.0000      -0.260773        -7.0960 
  41   0.0000      -0.042463        -1.1555 
  42   0.0000      -0.025827        -0.7028 
  43   0.0000      -0.004436        -0.1207 
  44   0.0000       0.039078         1.0634 
  45   0.0000       0.046661         1.2697 
  46   0.0000       0.054651         1.4871 
  47   0.0000       0.078236         2.1289 
  48   0.0000       0.089645         2.4394 
  49   0.0000       0.103870         2.8264 
  50   0.0000       0.118486         3.2242 
  51   0.0000       0.123438         3.3589 
  52   0.0000       0.127995         3.4829 
  53   0.0000       0.155818         4.2400 
  54   0.0000       0.176856         4.8125 
  55   0.0000       0.181457         4.9377 
  56   0.0000       0.204376         5.5613 
  57   0.0000       0.213801         5.8178 
  58   0.0000       0.215284         5.8582 
  59   0.0000       0.221658         6.0316 
  60   0.0000       0.230864         6.2821 
  61   0.0000       0.235037         6.3957 
  62   0.0000       0.240678         6.5492 
  63   0.0000       0.252786         6.8787 
  64   0.0000       0.269373         7.3300 
  65   0.0000       0.274201         7.4614 
  66   0.0000       0.283963         7.7270 
  67   0.0000       0.290564         7.9067 
  68   0.0000       0.299039         8.1373 
  69   0.0000       0.310402         8.4465 
  70   0.0000       0.323547         8.8041 
  71   0.0000       0.330983         9.0065 
  72   0.0000       0.339686         9.2433 
  73   0.0000       0.344934         9.3861 
  74   0.0000       0.345438         9.3998 
  75   0.0000       0.351693         9.5700 
  76   0.0000       0.366159         9.9637 
  77   0.0000       0.366534         9.9739 
  78   0.0000       0.376761        10.2522 
  79   0.0000       0.385797        10.4981 
  80   0.0000       0.395698        10.7675 
  81   0.0000       0.411346        11.1933 
  82   0.0000       0.412145        11.2150 
  83   0.0000       0.414193        11.2708 
  84   0.0000       0.418033        11.3753 
  85   0.0000       0.433407        11.7936 
  86   0.0000       0.449642        12.2354 
  87   0.0000       0.456799        12.4301 
  88   0.0000       0.462315        12.5802 
  89   0.0000       0.479879        13.0582 
  90   0.0000       0.486405        13.2357 
  91   0.0000       0.492972        13.4145 
  92   0.0000       0.499680        13.5970 
  93   0.0000       0.507298        13.8043 
  94   0.0000       0.568846        15.4791 
  95   0.0000       0.577006        15.7011 
  96   0.0000       0.595944        16.2165 
  97   0.0000       0.609151        16.5759 
  98   0.0000       0.617946        16.8152 
  99   0.0000       0.626775        17.0554 
 100   0.0000       0.630446        17.1553 
 101   0.0000       0.639083        17.3903 
 102   0.0000       0.654414        17.8075 
 103   0.0000       0.658638        17.9225 
 104   0.0000       0.662927        18.0392 
 105   0.0000       0.682090        18.5606 
 106   0.0000       0.695574        18.9275 
 107   0.0000       0.726934        19.7809 
 108   0.0000       0.748605        20.3706 
 109   0.0000       0.749915        20.4062 
 110   0.0000       0.751277        20.4433 
 111   0.0000       0.781865        21.2756 
 112   0.0000       0.800512        21.7830 
 113   0.0000       0.808583        22.0027 
 114   0.0000       0.821375        22.3507 
 115   0.0000       0.841971        22.9112 
 116   0.0000       0.864466        23.5233 
 117   0.0000       0.866079        23.5672 
 118   0.0000       0.876919        23.8622 
 119   0.0000       0.935026        25.4434 
 120   0.0000       0.947597        25.7854 
 121   0.0000       0.955495        26.0003 
 122   0.0000       0.962600        26.1937 
 123   0.0000       0.972737        26.4695 
 124   0.0000       0.977701        26.6046 
 125   0.0000       0.995285        27.0831 
 126   0.0000       1.016619        27.6636 
 127   0.0000       1.035387        28.1743 
 128   0.0000       1.051331        28.6082 
 129   0.0000       1.053285        28.6613 
 130   0.0000       1.067476        29.0475 
 131   0.0000       1.098037        29.8791 
 132   0.0000       1.103326        30.0230 
 133   0.0000       1.118472        30.4352 
 134   0.0000       1.150596        31.3093 
 135   0.0000       1.153390        31.3853 
 136   0.0000       1.170662        31.8553 
 137   0.0000       1.185071        32.2474 
 138   0.0000       1.190258        32.3886 
 139   0.0000       1.212245        32.9869 
 140   0.0000       1.214987        33.0615 
 141   0.0000       1.238511        33.7016 
 142   0.0000       1.266109        34.4526 
 143   0.0000       1.282388        34.8956 
 144   0.0000       1.294567        35.2270 
 145   0.0000       1.312066        35.7031 
 146   0.0000       1.314232        35.7621 
 147   0.0000       1.315386        35.7935 
 148   0.0000       1.345368        36.6093 
 149   0.0000       1.360735        37.0275 
 150   0.0000       1.365228        37.1497 
 151   0.0000       1.381320        37.5876 
 152   0.0000       1.404291        38.2127 
 153   0.0000       1.420934        38.6656 
 154   0.0000       1.431967        38.9658 
 155   0.0000       1.468020        39.9469 
 156   0.0000       1.495276        40.6885 
 157   0.0000       1.505483        40.9663 
 158   0.0000       1.511826        41.1389 
 159   0.0000       1.554708        42.3058 
 160   0.0000       1.566252        42.6199 
 161   0.0000       1.566379        42.6233 
 162   0.0000       1.596502        43.4430 
 163   0.0000       1.625204        44.2240 
 164   0.0000       1.645203        44.7683 
 165   0.0000       1.662387        45.2358 
 166   0.0000       1.691865        46.0380 
 167   0.0000       1.703395        46.3517 
 168   0.0000       1.721849        46.8539 
 169   0.0000       1.755161        47.7603 
 170   0.0000       1.755480        47.7690 
 171   0.0000       1.766013        48.0557 
 172   0.0000       1.767625        48.0995 
 173   0.0000       1.780097        48.4389 
 174   0.0000       1.783486        48.5311 
 175   0.0000       1.803663        49.0802 
 176   0.0000       1.807546        49.1858 
 177   0.0000       1.809115        49.2285 
 178   0.0000       1.846072        50.2342 
 179   0.0000       1.866192        50.7817 
 180   0.0000       1.878208        51.1087 
 181   0.0000       1.894026        51.5391 
 182   0.0000       1.915843        52.1327 
 183   0.0000       1.930280        52.5256 
 184   0.0000       1.967279        53.5324 
 185   0.0000       1.968821        53.5743 
 186   0.0000       1.977474        53.8098 
 187   0.0000       2.001948        54.4758 
 188   0.0000       2.028716        55.2042 
 189   0.0000       2.042457        55.5781 
 190   0.0000       2.058797        56.0227 
 191   0.0000       2.069940        56.3259 
 192   0.0000       2.083664        56.6994 
 193   0.0000       2.084317        56.7171 
 194   0.0000       2.095869        57.0315 
 195   0.0000       2.117305        57.6148 
 196   0.0000       2.140056        58.2339 
 197   0.0000       2.161427        58.8154 
 198   0.0000       2.173372        59.1405 
 199   0.0000       2.194517        59.7158 
 200   0.0000       2.215480        60.2863 
 201   0.0000       2.228778        60.6481 
 202   0.0000       2.238756        60.9196 
 203   0.0000       2.239213        60.9321 
 204   0.0000       2.249262        61.2055 
 205   0.0000       2.262056        61.5537 
 206   0.0000       2.268699        61.7344 
 207   0.0000       2.277232        61.9666 
 208   0.0000       2.315551        63.0093 
 209   0.0000       2.322474        63.1977 
 210   0.0000       2.328721        63.3677 
 211   0.0000       2.358390        64.1751 
 212   0.0000       2.363207        64.3061 
 213   0.0000       2.373885        64.5967 
 214   0.0000       2.423253        65.9401 
 215   0.0000       2.446984        66.5858 
 216   0.0000       2.481554        67.5265 
 217   0.0000       2.542550        69.1863 
 218   0.0000       2.564049        69.7713 
 219   0.0000       2.608603        70.9837 
 220   0.0000       2.639637        71.8282 
 221   0.0000       2.656491        72.2868 
 222   0.0000       2.671541        72.6963 
 223   0.0000       2.694018        73.3080 
 224   0.0000       2.714603        73.8681 
 225   0.0000       2.722502        74.0831 
 226   0.0000       2.744347        74.6775 
 227   0.0000       2.764459        75.2248 
 228   0.0000       2.778736        75.6133 
 229   0.0000       2.781302        75.6831 
 230   0.0000       2.789913        75.9174 
 231   0.0000       2.811321        76.4999 
 232   0.0000       2.869729        78.0893 
 233   0.0000       2.877600        78.3035 
 234   0.0000       2.891875        78.6919 
 235   0.0000       2.926838        79.6433 
 236   0.0000       2.948134        80.2228 
 237   0.0000       2.953736        80.3752 
 238   0.0000       2.968429        80.7751 
 239   0.0000       2.985100        81.2287 
 240   0.0000       3.010274        81.9137 
 241   0.0000       3.017325        82.1056 
 242   0.0000       3.030130        82.4540 
 243   0.0000       3.042974        82.8035 
 244   0.0000       3.058122        83.2157 
 245   0.0000       3.064364        83.3856 
 246   0.0000       3.069466        83.5244 
 247   0.0000       3.087236        84.0080 
 248   0.0000       3.119938        84.8978 
 249   0.0000       3.123796        85.0028 
 250   0.0000       3.140058        85.4453 
 251   0.0000       3.168256        86.2126 
 252   0.0000       3.170297        86.2682 
 253   0.0000       3.172737        86.3346 
 254   0.0000       3.201889        87.1278 
 255   0.0000       3.227435        87.8230 
 256   0.0000       3.227917        87.8361 
 257   0.0000       3.276573        89.1601 
 258   0.0000       3.297872        89.7397 
 259   0.0000       3.298558        89.7583 
 260   0.0000       3.314395        90.1893 
 261   0.0000       3.318146        90.2913 
 262   0.0000       3.323407        90.4345 
 263   0.0000       3.339106        90.8617 
 264   0.0000       3.341317        90.9218 
 265   0.0000       3.367885        91.6448 
 266   0.0000       3.386996        92.1648 
 267   0.0000       3.429124        93.3112 
 268   0.0000       3.432975        93.4160 
 269   0.0000       3.436720        93.5179 
 270   0.0000       3.452071        93.9356 
 271   0.0000       3.475006        94.5597 
 272   0.0000       3.481254        94.7297 
 273   0.0000       3.489506        94.9543 
 274   0.0000       3.508405        95.4685 
 275   0.0000       3.528023        96.0024 
 276   0.0000       3.550692        96.6192 
 277   0.0000       3.582145        97.4751 
 278   0.0000       3.616588        98.4124 
 279   0.0000       3.644128        99.1618 
 280   0.0000       3.658091        99.5417 
 281   0.0000       3.662389        99.6587 
 282   0.0000       3.694217       100.5248 
 283   0.0000       3.743579       101.8680 
 284   0.0000       3.753300       102.1325 
 285   0.0000       3.761844       102.3650 
 286   0.0000       3.762372       102.3793 
 287   0.0000       3.796569       103.3099 
 288   0.0000       3.799342       103.3854 
 289   0.0000       3.804553       103.5271 
 290   0.0000       3.806464       103.5792 
 291   0.0000       3.831542       104.2616 
 292   0.0000       3.856260       104.9342 
 293   0.0000       3.859637       105.0261 
 294   0.0000       3.881293       105.6154 
 295   0.0000       3.882629       105.6517 
 296   0.0000       3.917372       106.5971 
 297   0.0000       3.920829       106.6912 
 298   0.0000       3.967454       107.9599 
 299   0.0000       3.983965       108.4092 
 300   0.0000       3.999495       108.8318 
 301   0.0000       4.037740       109.8725 
 302   0.0000       4.080181       111.0274 
 303   0.0000       4.097897       111.5094 
 304   0.0000       4.105200       111.7082 
 305   0.0000       4.118917       112.0814 
 306   0.0000       4.138746       112.6210 
 307   0.0000       4.160301       113.2075 
 308   0.0000       4.180995       113.7707 
 309   0.0000       4.204562       114.4120 
 310   0.0000       4.220482       114.8451 
 311   0.0000       4.223535       114.9282 
 312   0.0000       4.224671       114.9592 
 313   0.0000       4.237166       115.2991 
 314   0.0000       4.254931       115.7826 
 315   0.0000       4.259944       115.9190 
 316   0.0000       4.300351       117.0185 
 317   0.0000       4.301327       117.0450 
 318   0.0000       4.310191       117.2863 
 319   0.0000       4.333939       117.9325 
 320   0.0000       4.401408       119.7684 
 321   0.0000       4.471905       121.6867 
 322   0.0000       4.525582       123.1474 
 323   0.0000       4.529116       123.2435 
 324   0.0000       4.609088       125.4197 
 325   0.0000       4.612658       125.5168 
 326   0.0000       4.631514       126.0299 
 327   0.0000       4.636589       126.1680 
 328   0.0000       4.662924       126.8846 
 329   0.0000       4.714125       128.2778 
 330   0.0000       4.721890       128.4892 
 331   0.0000       4.756816       129.4395 
 332   0.0000       4.762811       129.6027 
 333   0.0000       4.774456       129.9196 
 334   0.0000       4.798912       130.5850 
 335   0.0000       4.866402       132.4215 
 336   0.0000       4.886908       132.9795 
 337   0.0000       4.939641       134.4145 
 338   0.0000       4.966271       135.1391 
 339   0.0000       4.968288       135.1940 
 340   0.0000       5.006094       136.2227 
 341   0.0000       5.065675       137.8440 
 342   0.0000       5.094307       138.6232 
 343   0.0000       5.168834       140.6511 
 344   0.0000       5.176141       140.8499 
 345   0.0000       5.268573       143.3652 
 346   0.0000       5.309200       144.4707 
 347   0.0000       5.344683       145.4362 
 348   0.0000       5.371263       146.1595 
 349   0.0000       5.408319       147.1678 
 350   0.0000       5.442294       148.0923 
 351   0.0000       5.536980       150.6689 
 352   0.0000       5.616965       152.8454 
 353   0.0000       5.679225       154.5396 
 354   0.0000       5.686723       154.7436 
 355   0.0000       5.762886       156.8161 
 356   0.0000       6.010936       163.5659 
 357   0.0000       6.027129       164.0065 
 358   0.0000       6.161225       167.6554 
 359   0.0000       6.651501       180.9965 
 360   0.0000       8.050568       219.0671 
 361   0.0000       8.054770       219.1814 
 362   0.0000       8.082463       219.9350 
 363   0.0000       8.107308       220.6111 
 364   0.0000       8.117735       220.8948 
 365   0.0000       8.163478       222.1395 
 366   0.0000       8.175704       222.4722 
 367   0.0000       8.234095       224.0611 
 368   0.0000       8.242825       224.2987 
 369   0.0000       8.287572       225.5163 
 370   0.0000      10.707520       291.3664 
 371   0.0000      10.762992       292.8759 
 372   0.0000      10.780013       293.3391 
 373   0.0000      10.792424       293.6768 
 374   0.0000      11.221866       305.3625 
 375   0.0000      11.363703       309.2221 
 376   0.0000      22.460511       611.1816 
 377   0.0000      22.498226       612.2078 
 378   0.0000      23.052498       627.2904 
 379   0.0000      23.143359       629.7628 
 380   0.0000      23.176417       630.6624 
 381   0.0000      23.200849       631.3272 
 382   0.0000      23.991963       652.8545 
 383   0.0000      25.212540       686.0681 
 384   0.0000      25.546493       695.1554 

                    ********************************
                    * MULLIKEN POPULATION ANALYSIS *
                    ********************************

-----------------------
MULLIKEN ATOMIC CHARGES
-----------------------
   0 Cl:   -0.114689
   1 Cl:   -0.114670
   2 C :    0.073583
   3 C :   -0.139572
   4 C :   -0.182821
   5 C :    0.046268
   6 C :   -0.124880
   7 C :   -0.102548
   8 C :   -0.159139
   9 H :    0.131745
  10 H :    0.127058
  11 H :    0.143804
  12 H :    0.132241
  13 H :    0.132340
  14 H :    0.151278
Sum of atomic charges:   -0.0000000

--------------------------------
MULLIKEN REDUCED ORBITAL CHARGES
--------------------------------
  0 Cls       :     5.906543  s :     5.906543
      pz      :     3.476667  p :    11.146015
      px      :     3.832041
      py      :     3.837306
      dz2     :     0.016141  d :     0.056861
      dxz     :     0.015846
      dyz     :     0.013986
      dx2y2   :     0.006012
      dxy     :     0.004875
      f0      :     0.000808  f :     0.005270
      f+1     :     0.001336
      f-1     :     0.001130
      f+2     :     0.000701
      f-2     :     0.000985
      f+3     :     0.000156
      f-3     :     0.000155
  1 Cls       :     5.906539  s :     5.906539
      pz      :     3.477235  p :    11.146001
      px      :     3.832058
      py      :     3.836708
      dz2     :     0.016114  d :     0.056860
      dxz     :     0.015829
      dyz     :     0.014005
      dx2y2   :     0.006021
      dxy     :     0.004891
      f0      :     0.000806  f :     0.005270
      f+1     :     0.001332
      f-1     :     0.001131
      f+2     :     0.000702
      f-2     :     0.000988
      f+3     :     0.000156
      f-3     :     0.000155
  2 C s       :     3.228974  s :     3.228974
      pz      :     0.954826  p :     2.550441
      px      :     0.746270
      py      :     0.849345
      dz2     :     0.006670  d :     0.137106
      dxz     :     0.016470
      dyz     :     0.025588
      dx2y2   :     0.047323
      dxy     :     0.041054
      f0      :     0.001658  f :     0.009896
      f+1     :     0.000920
      f-1     :     0.000520
      f+2     :     0.000843
      f-2     :     0.001060
      f+3     :     0.002058
      f-3     :     0.002837
  3 C s       :     3.161137  s :     3.161137
      pz      :     0.965816  p :     2.877493
      px      :     0.914431
      py      :     0.997246
      dz2     :     0.002947  d :     0.093441
      dxz     :     0.022537
      dyz     :     0.008102
      dx2y2   :     0.029336
      dxy     :     0.030519
      f0      :     0.001324  f :     0.007501
      f+1     :     0.000485
      f-1     :     0.000647
      f+2     :     0.000666
      f-2     :     0.000856
      f+3     :     0.001489
      f-3     :     0.002034
  4 C s       :     3.236545  s :     3.236545
      pz      :     0.938541  p :     2.844172
      px      :     0.957970
      py      :     0.947661
      dz2     :     0.003835  d :     0.094623
      dxz     :     0.016421
      dyz     :     0.012982
      dx2y2   :     0.018772
      dxy     :     0.042613
      f0      :     0.001343  f :     0.007481
      f+1     :     0.000519
      f-1     :     0.000570
      f+2     :     0.001088
      f-2     :     0.000380
      f+3     :     0.001406
      f-3     :     0.002174
  5 C s       :     3.174738  s :     3.174738
      pz      :     0.728072  p :     2.591748
      px      :     0.883602
      py      :     0.980074
      dz2     :     0.041479  d :     0.177920
      dxz     :     0.047884
      dyz     :     0.028340
      dx2y2   :     0.034127
      dxy     :     0.026089
      f0      :     0.001758  f :     0.009326
      f+1     :     0.001395
      f-1     :     0.001302
      f+2     :     0.001557
      f-2     :     0.001299
      f+3     :     0.000885
      f-3     :     0.001130
  6 C s       :     3.221548  s :     3.221548
      pz      :     0.950573  p :     2.794881
      px      :     0.905971
      py      :     0.938338
      dz2     :     0.004950  d :     0.101074
      dxz     :     0.016442
      dyz     :     0.012655
      dx2y2   :     0.021234
      dxy     :     0.045792
      f0      :     0.001335  f :     0.007377
      f+1     :     0.000480
      f-1     :     0.000556
      f+2     :     0.001129
      f-2     :     0.000345
      f+3     :     0.001503
      f-3     :     0.002028
  7 C s       :     3.161549  s :     3.161549
      pz      :     0.947791  p :     2.833287
      px      :     0.902607
      py      :     0.982889
      dz2     :     0.003236  d :     0.100376
      dxz     :     0.020767
      dyz     :     0.008195
      dx2y2   :     0.034494
      dxy     :     0.033684
      f0      :     0.001327  f :     0.007337
      f+1     :     0.000462
      f-1     :     0.000616
      f+2     :     0.000662
      f-2     :     0.000800
      f+3     :     0.001411
      f-3     :     0.002058
  8 C s       :     3.235497  s :     3.235497
      pz      :     0.945913  p :     2.813898
      px      :     0.996580
      py      :     0.871405
      dz2     :     0.004855  d :     0.102239
      dxz     :     0.006609
      dyz     :     0.022678
      dx2y2   :     0.044488
      dxy     :     0.023608
      f0      :     0.001319  f :     0.007505
      f+1     :     0.000664
      f-1     :     0.000422
      f+2     :     0.000423
      f-2     :     0.001066
      f+3     :     0.001428
      f-3     :     0.002183
  9 H s       :     0.829469  s :     0.829469
      pz      :     0.013003  p :     0.037038
      px      :     0.009614
      py      :     0.014421
      dz2     :     0.000039  d :     0.001747
      dxz     :     0.000084
      dyz     :     0.000649
      dx2y2   :     0.000400
      dxy     :     0.000576
 10 H s       :     0.832932  s :     0.832932
      pz      :     0.012233  p :     0.038233
      px      :     0.011885
      py      :     0.014114
      dz2     :     0.000048  d :     0.001777
      dxz     :     0.000314
      dyz     :     0.000429
      dx2y2   :     0.000906
      dxy     :     0.000081
 11 H s       :     0.820062  s :     0.820062
      pz      :     0.009842  p :     0.033944
      px      :     0.010931
      py      :     0.013171
      dz2     :     0.000067  d :     0.002189
      dxz     :     0.000037
      dyz     :     0.000970
      dx2y2   :     0.000213
      dxy     :     0.000902
 12 H s       :     0.831499  s :     0.831499
      pz      :     0.012942  p :     0.034591
      px      :     0.010369
      py      :     0.011280
      dz2     :     0.000013  d :     0.001669
      dxz     :     0.000305
      dyz     :     0.000435
      dx2y2   :     0.000862
      dxy     :     0.000054
 13 H s       :     0.830047  s :     0.830047
      pz      :     0.012845  p :     0.035879
      px      :     0.009178
      py      :     0.013855
      dz2     :     0.000035  d :     0.001734
      dxz     :     0.000097
      dyz     :     0.000639
      dx2y2   :     0.000427
      dxy     :     0.000535
 14 H s       :     0.813682  s :     0.813682
      pz      :     0.012776  p :     0.033407
      px      :     0.012306
      py      :     0.008325
      dz2     :     0.000004  d :     0.001632
      dxz     :     0.000698
      dyz     :     0.000033
      dx2y2   :     0.000133
      dxy     :     0.000764


                     *******************************
                     * LOEWDIN POPULATION ANALYSIS *
                     *******************************

----------------------
LOEWDIN ATOMIC CHARGES
----------------------
   0 Cl:    0.337101
   1 Cl:    0.337103
   2 C :   -0.142857
   3 C :    0.002385
   4 C :    0.002152
   5 C :   -0.615398
   6 C :   -0.007577
   7 C :   -0.005493
   8 C :   -0.007053
   9 H :    0.017228
  10 H :    0.019997
  11 H :    0.008134
  12 H :    0.017835
  13 H :    0.018437
  14 H :    0.018006

-------------------------------
LOEWDIN REDUCED ORBITAL CHARGES
-------------------------------
  0 Cls       :     5.589407  s :     5.589407
      pz      :     3.446208  p :    10.970984
      px      :     3.749636
      py      :     3.775140
      dz2     :     0.026442  d :     0.091902
      dxz     :     0.024664
      dyz     :     0.022870
      dx2y2   :     0.010066
      dxy     :     0.007860
      f0      :     0.001790  f :     0.010605
      f+1     :     0.002460
      f-1     :     0.002155
      f+2     :     0.001642
      f-2     :     0.001902
      f+3     :     0.000332
      f-3     :     0.000325
  1 Cls       :     5.589407  s :     5.589407
      pz      :     3.446712  p :    10.970982
      px      :     3.749653
      py      :     3.774617
      dz2     :     0.026400  d :     0.091902
      dxz     :     0.024637
      dyz     :     0.022896
      dx2y2   :     0.010082
      dxy     :     0.007886
      f0      :     0.001785  f :     0.010605
      f+1     :     0.002454
      f-1     :     0.002156
      f+2     :     0.001643
      f-2     :     0.001907
      f+3     :     0.000333
      f-3     :     0.000326
  2 C s       :     2.721547  s :     2.721547
      pz      :     0.865479  p :     2.870654
      px      :     0.970764
      py      :     1.034410
      dz2     :     0.033730  d :     0.496763
      dxz     :     0.057418
      dyz     :     0.074654
      dx2y2   :     0.177576
      dxy     :     0.153385
      f0      :     0.003717  f :     0.053893
      f+1     :     0.004592
      f-1     :     0.004061
      f+2     :     0.004854
      f-2     :     0.006617
      f+3     :     0.012317
      f-3     :     0.017735
  3 C s       :     2.721141  s :     2.721141
      pz      :     0.851995  p :     2.848531
      px      :     1.011294
      py      :     0.985242
      dz2     :     0.025995  d :     0.386027
      dxz     :     0.069028
      dyz     :     0.022022
      dx2y2   :     0.136464
      dxy     :     0.132517
      f0      :     0.002267  f :     0.041917
      f+1     :     0.003795
      f-1     :     0.003253
      f+2     :     0.004108
      f-2     :     0.005293
      f+3     :     0.009953
      f-3     :     0.013249
  4 C s       :     2.722774  s :     2.722774
      pz      :     0.840495  p :     2.851140
      px      :     1.016877
      py      :     0.993768
      dz2     :     0.026228  d :     0.381887
      dxz     :     0.049664
      dyz     :     0.039134
      dx2y2   :     0.108290
      dxy     :     0.158571
      f0      :     0.002323  f :     0.042047
      f+1     :     0.003606
      f-1     :     0.003486
      f+2     :     0.006997
      f-2     :     0.002321
      f+3     :     0.009988
      f-3     :     0.013326
  5 C s       :     2.845640  s :     2.845640
      pz      :     0.949802  p :     3.031829
      px      :     1.032935
      py      :     1.049092
      dz2     :     0.166768  d :     0.675127
      dxz     :     0.173383
      dyz     :     0.119351
      dx2y2   :     0.130237
      dxy     :     0.085389
      f0      :     0.010712  f :     0.062801
      f+1     :     0.010160
      f-1     :     0.009465
      f+2     :     0.009117
      f-2     :     0.010711
      f+3     :     0.005586
      f-3     :     0.007051
  6 C s       :     2.725551  s :     2.725551
      pz      :     0.847656  p :     2.855401
      px      :     1.004068
      py      :     1.003677
      dz2     :     0.025008  d :     0.384724
      dxz     :     0.050199
      dyz     :     0.038705
      dx2y2   :     0.110481
      dxy     :     0.160332
      f0      :     0.002286  f :     0.041901
      f+1     :     0.003574
      f-1     :     0.003428
      f+2     :     0.006987
      f-2     :     0.002130
      f+3     :     0.009990
      f-3     :     0.013507
  7 C s       :     2.725273  s :     2.725273
      pz      :     0.844047  p :     2.852783
      px      :     1.015166
      py      :     0.993570
      dz2     :     0.024908  d :     0.385448
      dxz     :     0.066192
      dyz     :     0.022042
      dx2y2   :     0.140903
      dxy     :     0.131403
      f0      :     0.002269  f :     0.041989
      f+1     :     0.003754
      f-1     :     0.003230
      f+2     :     0.004143
      f-2     :     0.004939
      f+3     :     0.010034
      f-3     :     0.013620
  8 C s       :     2.726058  s :     2.726058
      pz      :     0.840536  p :     2.852537
      px      :     0.990712
      py      :     1.021288
      dz2     :     0.025289  d :     0.386347
      dxz     :     0.016971
      dyz     :     0.071534
      dx2y2   :     0.157455
      dxy     :     0.115099
      f0      :     0.002289  f :     0.042111
      f+1     :     0.003183
      f-1     :     0.003809
      f+2     :     0.002555
      f-2     :     0.006573
      f+3     :     0.010046
      f-3     :     0.013658
  9 H s       :     0.803968  s :     0.803968
      pz      :     0.042834  p :     0.149724
      px      :     0.038235
      py      :     0.068655
      dz2     :     0.002692  d :     0.029080
      dxz     :     0.000927
      dyz     :     0.007502
      dx2y2   :     0.009022
      dxy     :     0.008937
 10 H s       :     0.801832  s :     0.801832
      pz      :     0.040393  p :     0.149056
      px      :     0.051142
      py      :     0.057522
      dz2     :     0.002746  d :     0.029115
      dxz     :     0.003468
      dyz     :     0.004943
      dx2y2   :     0.009254
      dxy     :     0.008703
 11 H s       :     0.814952  s :     0.814952
      pz      :     0.031080  p :     0.147794
      px      :     0.033205
      py      :     0.083509
      dz2     :     0.003186  d :     0.029121
      dxz     :     0.000220
      dyz     :     0.007196
      dx2y2   :     0.009876
      dxy     :     0.008643
 12 H s       :     0.804889  s :     0.804889
      pz      :     0.041668  p :     0.148431
      px      :     0.049845
      py      :     0.056917
      dz2     :     0.002688  d :     0.028846
      dxz     :     0.003430
      dyz     :     0.004878
      dx2y2   :     0.009175
      dxy     :     0.008674
 13 H s       :     0.804883  s :     0.804883
      pz      :     0.041196  p :     0.147874
      px      :     0.038522
      py      :     0.068156
      dz2     :     0.002676  d :     0.028807
      dxz     :     0.001024
      dyz     :     0.007225
      dx2y2   :     0.008896
      dxy     :     0.008985
 14 H s       :     0.804776  s :     0.804776
      pz      :     0.041294  p :     0.148430
      px      :     0.071603
      py      :     0.035533
      dz2     :     0.002678  d :     0.028787
      dxz     :     0.007922
      dyz     :     0.000284
      dx2y2   :     0.008729
      dxy     :     0.009174


                      *****************************
                      * MAYER POPULATION ANALYSIS *
                      *****************************

  NA   - Mulliken gross atomic population
  ZA   - Total nuclear charge
  QA   - Mulliken gross atomic charge
  VA   - Mayer's total valence
  BVA  - Mayer's bonded valence
  FA   - Mayer's free valence

  ATOM       NA         ZA         QA         VA         BVA        FA
  0 Cl    17.1147    17.0000    -0.1147     1.1818     1.1818    -0.0000
  1 Cl    17.1147    17.0000    -0.1147     1.1818     1.1818    -0.0000
  2 C      5.9264     6.0000     0.0736     3.6329     3.6329    -0.0000
  3 C      6.1396     6.0000    -0.1396     3.8989     3.8989     0.0000
  4 C      6.1828     6.0000    -0.1828     3.9963     3.9963    -0.0000
  5 C      5.9537     6.0000     0.0463     4.2144     4.2144    -0.0000
  6 C      6.1249     6.0000    -0.1249     3.9257     3.9257     0.0000
  7 C      6.1025     6.0000    -0.1025     3.9001     3.9001     0.0000
  8 C      6.1591     6.0000    -0.1591     3.9147     3.9147     0.0000
  9 H      0.8683     1.0000     0.1317     1.0035     1.0035     0.0000
 10 H      0.8729     1.0000     0.1271     1.0326     1.0326    -0.0000
 11 H      0.8562     1.0000     0.1438     0.9940     0.9940    -0.0000
 12 H      0.8678     1.0000     0.1322     1.0000     1.0000    -0.0000
 13 H      0.8677     1.0000     0.1323     0.9979     0.9979     0.0000
 14 H      0.8487     1.0000     0.1513     0.9910     0.9910    -0.0000

  Mayer bond orders larger than 0.1
B(  0-Cl,  5-C ) :   1.1123 B(  1-Cl,  5-C ) :   1.1124 B(  2-C ,  3-C ) :   1.3450 
B(  2-C ,  4-C ) :   1.3368 B(  2-C ,  5-C ) :   0.9944 B(  3-C ,  6-C ) :   1.4219 
B(  3-C ,  9-H ) :   0.9570 B(  4-C ,  7-C ) :   1.4527 B(  4-C , 10-H ) :   0.9645 
B(  5-C , 11-H ) :   0.9693 B(  6-C ,  8-C ) :   1.4100 B(  6-C , 12-H ) :   0.9789 
B(  7-C ,  8-C ) :   1.3847 B(  7-C , 13-H ) :   0.9661 B(  8-C , 14-H ) :   0.9693 


-------
TIMINGS
-------

Total SCF time: 0 days 0 hours 13 min 25 sec 

Total time                  ....     805.098 sec
Sum of individual times     ....     804.748 sec  (100.0%)

Fock matrix formation       ....     798.219 sec  ( 99.1%)
  XC integration            ....      19.682 sec  (  2.5% of F)
    Basis function eval.    ....       6.187 sec  ( 31.4% of XC)
    Density eval.           ....       3.018 sec  ( 15.3% of XC)
    XC-Functional eval.     ....       0.379 sec  (  1.9% of XC)
    XC-Potential eval.      ....       9.789 sec  ( 49.7% of XC)
Diagonalization             ....       0.355 sec  (  0.0%)
Density matrix formation    ....       0.039 sec  (  0.0%)
Population analysis         ....       0.124 sec  (  0.0%)
Initial guess               ....       2.210 sec  (  0.3%)
Orbital Transformation      ....       0.000 sec  (  0.0%)
Orbital Orthonormalization  ....       0.000 sec  (  0.0%)
DIIS solution               ....       0.156 sec  (  0.0%)
SOSCF solution              ....       0.229 sec  (  0.0%)
Grid generation             ....       3.417 sec  (  0.4%)

-------------------------   --------------------
FINAL SINGLE POINT ENERGY     -1190.603542545642
-------------------------   --------------------

------------------------------------------------------------------------------
                         ORCA SCF GRADIENT CALCULATION
------------------------------------------------------------------------------

Gradient of the Kohn-Sham DFT energy:
Kohn-Sham wavefunction type      ... RKS
Hartree-Fock exchange scaling    ...    0.200
Number of operators              ...    1
Number of atoms                  ...   15
Basis set dimensions             ...  385
Integral neglect threshold       ... 2.5e-11
Integral primitive cutoff        ... 2.5e-12

Nuclear repulsion gradient       ... done
One Electron Gradient            ... done
Pre-screening matrix             ... done
Starting the two electron gradient:
Two electron gradient done
Exchange-correlation gradient    ... done

------------------
CARTESIAN GRADIENT
------------------

   1   Cl  :   -0.005517093   -0.000308466    0.007330116
   2   Cl  :   -0.005516246   -0.000298862   -0.007329865
   3   C   :    0.010754158    0.001066048    0.000000490
   4   C   :   -0.000765447    0.008950776    0.000005135
   5   C   :    0.007709094   -0.005399498   -0.000003641
   6   C   :    0.011122687   -0.015204758   -0.000009805
   7   C   :   -0.003399035    0.006887621    0.000004460
   8   C   :   -0.006833992   -0.007232215   -0.000005886
   9   C   :   -0.004883028   -0.003418007   -0.000000907
  10   H   :   -0.001714987    0.000533151    0.000000511
  11   H   :   -0.000594587   -0.001960616   -0.000000957
  12   H   :    0.001044618    0.016728892    0.000010751
  13   H   :   -0.000728615   -0.000106727   -0.000000230
  14   H   :   -0.000694288   -0.000146958    0.000000172
  15   H   :    0.000016759   -0.000090380   -0.000000344

Difference to translation invariance:
           :   -0.0000000001   -0.0000000000   -0.0000000000

Norm of the cartesian gradient     ...    0.0359504665
RMS gradient                       ...    0.0053591791
MAX gradient                       ...    0.0167288920

-------
TIMINGS
-------

Total SCF gradient time            ...      326.046 sec

One electron gradient       ....       0.677 sec  (  0.2%)
Prescreening matrices       ....       1.260 sec  (  0.4%)
Two electron gradient       ....     312.305 sec  ( 95.8%)
XC gradient                 ....      11.628 sec  (  3.6%)
------------------------------------------------------------------------------
                         ORCA GEOMETRY RELAXATION STEP
------------------------------------------------------------------------------

Reading the OPT-File                    .... done
Getting information on internals        .... done
Copying old internal coords+grads       .... done
Making the new internal coordinates     .... (new redundants).... done
Validating the new internal coordinates .... (new redundants).... done
Calculating the B-matrix                .... done
Calculating the G,G- and P matrices     .... done
Transforming gradient to internals      .... done
Projecting the internal gradient        .... done
Number of atoms                         ....  15
Number of internal coordinates          ....  69
Current Energy                          .... -1190.603542546 Eh
Current gradient norm                   ....     0.035950466 Eh/bohr
Maximum allowed component of the step   ....  0.300
Current trust radius                    ....  0.300
Evaluating the initial hessian          ....  (Almloef) done
Projecting the Hessian                  .... done
Forming the augmented Hessian           .... done
Diagonalizing the augmented Hessian     .... done
Last element of RFO vector              ....  0.995500425
Lowest eigenvalues of augmented Hessian:
 -0.002964694  0.012250463  0.019181644  0.023959349  0.024466952
Length of the computed step             ....  0.095185367
The final length of the internal step   ....  0.095185367
Converting the step to cartesian space:
 Initial RMS(Int)=    0.0114589716
Transforming coordinates:
 Iter   0:  RMS(Cart)=    0.0258191282 RMS(Int)=    1.8528432308
 Iter   1:  RMS(Cart)=    0.0004419908 RMS(Int)=    0.0003216601
 Iter   2:  RMS(Cart)=    0.0000118259 RMS(Int)=    0.0000058754
 Iter   3:  RMS(Cart)=    0.0000003853 RMS(Int)=    0.0000003171
 Iter   4:  RMS(Cart)=    0.0000000104 RMS(Int)=    0.0000000047
done
Storing new coordinates                 .... done

                                .--------------------.
          ----------------------|Geometry convergence|-------------------------
          Item                value                   Tolerance       Converged
          ---------------------------------------------------------------------
          RMS gradient        0.0040944312            0.0000300000      NO
          MAX gradient        0.0166242003            0.0001000000      NO
          RMS step            0.0114589716            0.0006000000      NO
          MAX step            0.0493999336            0.0010000000      NO
          ........................................................
          Max(Bonds)      0.0261      Max(Angles)    1.25
          Max(Dihed)        1.14      Max(Improp)    0.00
          ---------------------------------------------------------------------

The optimization has not yet converged - more geometry cycles are needed


    ---------------------------------------------------------------------------
                         Redundant Internal Coordinates
                            (Angstroem and degrees)

        Definition                    Value    dE/dq     Step     New-Value
    ----------------------------------------------------------------------------
     1. B(C   3,C   2)                1.4061  0.012461 -0.0112    1.3948   
     2. B(C   4,C   2)                1.4072  0.010747 -0.0098    1.3974   
     3. B(C   5,Cl  0)                1.7828 -0.008208  0.0130    1.7958   
     4. B(C   5,C   2)                1.5070  0.001277 -0.0016    1.5053   
     5. B(C   5,Cl  1)                1.7828 -0.008207  0.0130    1.7958   
     6. B(C   6,C   3)                1.3985  0.006829 -0.0059    1.3926   
     7. B(C   7,C   4)                1.3982  0.010149 -0.0088    1.3894   
     8. B(C   8,C   7)                1.3971  0.004696 -0.0040    1.3931   
     9. B(C   8,C   6)                1.3972  0.008195 -0.0070    1.3902   
    10. B(H   9,C   3)                1.0829 -0.000057  0.0001    1.0830   
    11. B(H  10,C   4)                1.0830  0.001150 -0.0016    1.0813   
    12. B(H  11,C   5)                1.1108  0.016624 -0.0261    1.0847   
    13. B(H  12,C   6)                1.0824  0.000386 -0.0005    1.0818   
    14. B(H  13,C   7)                1.0824  0.000378 -0.0005    1.0818   
    15. B(H  14,C   8)                1.0823 -0.000001  0.0000    1.0823   
    16. A(C   3,C   2,C   4)          119.09 -0.001573    0.18    119.27   
    17. A(C   3,C   2,C   5)          120.28  0.005233   -0.72    119.56   
    18. A(C   4,C   2,C   5)          120.63 -0.003660    0.54    121.17   
    19. A(C   2,C   3,H   9)          120.60  0.002123   -0.33    120.27   
    20. A(C   2,C   3,C   6)          120.34 -0.000570    0.07    120.40   
    21. A(C   6,C   3,H   9)          119.07 -0.001552    0.26    119.33   
    22. A(C   2,C   4,H  10)          120.43  0.001536   -0.24    120.19   
    23. A(C   2,C   4,C   7)          120.36  0.000397   -0.08    120.28   
    24. A(C   7,C   4,H  10)          119.21 -0.001933    0.32    119.53   
    25. A(Cl  1,C   5,C   2)          110.50 -0.006002    1.16    111.66   
    26. A(Cl  0,C   5,C   2)          110.50 -0.006003    1.16    111.66   
    27. A(Cl  0,C   5,Cl  1)          109.40  0.001274    0.59    109.99   
    28. A(C   2,C   5,H  11)          110.97  0.000875   -0.52    110.45   
    29. A(Cl  1,C   5,H  11)          107.69  0.005218   -1.25    106.44   
    30. A(Cl  0,C   5,H  11)          107.69  0.005218   -1.25    106.44   
    31. A(C   8,C   6,H  12)          119.93 -0.001005    0.14    120.07   
    32. A(C   3,C   6,H  12)          119.95  0.000280   -0.06    119.89   
    33. A(C   3,C   6,C   8)          120.12  0.000726   -0.08    120.04   
    34. A(C   8,C   7,H  13)          119.95 -0.000338    0.05    120.00   
    35. A(C   4,C   7,H  13)          119.96  0.000889   -0.15    119.82   
    36. A(C   4,C   7,C   8)          120.09 -0.000551    0.09    120.18   
    37. A(C   7,C   8,H  14)          120.00 -0.000882    0.11    120.11   
    38. A(C   6,C   8,H  14)          120.00 -0.000691    0.08    120.08   
    39. A(C   6,C   8,C   7)          120.00  0.001573   -0.18    119.82   
    40. D(C   6,C   3,C   2,C   4)      0.00  0.000000   -0.00     -0.00   
    41. D(H   9,C   3,C   2,C   4)    180.00 -0.000000    0.00    180.00   
    42. D(C   6,C   3,C   2,C   5)   -180.00  0.000000   -0.00   -180.00   
    43. D(H   9,C   3,C   2,C   5)     -0.00  0.000000   -0.00     -0.00   
    44. D(C   7,C   4,C   2,C   5)    180.00 -0.000000    0.00    180.00   
    45. D(C   7,C   4,C   2,C   3)     -0.00 -0.000000    0.00     -0.00   
    46. D(H  10,C   4,C   2,C   3)    180.00  0.000000   -0.00    180.00   
    47. D(H  10,C   4,C   2,C   5)      0.00 -0.000000    0.00      0.00   
    48. D(H  11,C   5,C   2,C   3)      0.00 -0.000000    0.00      0.00   
    49. D(H  11,C   5,C   2,C   4)   -180.00 -0.000000    0.00   -180.00   
    50. D(Cl  1,C   5,C   2,C   4)    -60.61  0.003183   -1.14    -61.75   
    51. D(Cl  0,C   5,C   2,C   4)     60.61 -0.003183    1.14     61.76   
    52. D(Cl  1,C   5,C   2,C   3)    119.39  0.003183   -1.14    118.25   
    53. D(Cl  0,C   5,C   2,C   3)   -119.39 -0.003183    1.14   -118.24   
    54. D(C   8,C   6,C   3,C   2)     -0.00 -0.000000    0.00      0.00   
    55. D(H  12,C   6,C   3,H   9)      0.00  0.000000   -0.00      0.00   
    56. D(H  12,C   6,C   3,C   2)   -180.00 -0.000000    0.00   -180.00   
    57. D(C   8,C   6,C   3,H   9)   -180.00  0.000000   -0.00   -180.00   
    58. D(H  13,C   7,C   4,H  10)      0.00 -0.000000    0.00      0.00   
    59. D(H  13,C   7,C   4,C   2)   -180.00  0.000000   -0.00   -180.00   
    60. D(C   8,C   7,C   4,H  10)    180.00 -0.000000    0.00    180.00   
    61. D(C   8,C   7,C   4,C   2)     -0.00 -0.000000    0.00      0.00   
    62. D(H  14,C   8,C   7,H  13)     -0.00 -0.000000    0.00      0.00   
    63. D(H  14,C   8,C   7,C   4)    180.00  0.000000   -0.00    180.00   
    64. D(C   6,C   8,C   7,H  13)   -180.00  0.000000   -0.00   -180.00   
    65. D(C   6,C   8,C   7,C   4)      0.00  0.000000   -0.00     -0.00   
    66. D(H  14,C   8,C   6,H  12)      0.00  0.000000   -0.00     -0.00   
    67. D(H  14,C   8,C   6,C   3)   -180.00  0.000000   -0.00   -180.00   
    68. D(C   7,C   8,C   6,H  12)    180.00 -0.000000    0.00    180.00   
    69. D(C   7,C   8,C   6,C   3)     -0.00 -0.000000    0.00      0.00   
    ----------------------------------------------------------------------------

         *************************************************************
         *                GEOMETRY OPTIMIZATION CYCLE   2            *
         *************************************************************
---------------------------------
CARTESIAN COORDINATES (ANGSTROEM)
---------------------------------
  Cl     2.527630   -0.174129   -1.470702
  Cl     2.527588   -0.176098    1.470614
  C      0.253183    0.211022    0.000178
  C     -0.642134    1.280556    0.000835
  C     -0.242940   -1.095397   -0.000672
  C      1.733871    0.482185    0.000386
  C     -2.015489    1.049984    0.000643
  C     -1.613320   -1.324406   -0.000859
  C     -2.502614   -0.252071   -0.000204
  H     -0.275263    2.299508    0.001497
  H      0.437803   -1.935575   -0.001192
  H      1.923707    1.550144    0.001100
  H     -2.702434    1.885718    0.001151
  H     -1.989179   -2.338831   -0.001520
  H     -3.569919   -0.431899   -0.000354

----------------------------
CARTESIAN COORDINATES (A.U.)
----------------------------
  NO LB      ZA    FRAG     MASS         X           Y           Z
   0 Cl   17.0000    0    35.453    4.776529   -0.329057   -2.779224
   1 Cl   17.0000    0    35.453    4.776449   -0.332777    2.779059
   2 C     6.0000    0    12.011    0.478447    0.398774    0.000337
   3 C     6.0000    0    12.011   -1.213456    2.419900    0.001578
   4 C     6.0000    0    12.011   -0.459090   -2.070001   -0.001269
   5 C     6.0000    0    12.011    3.276541    0.911197    0.000729
   6 C     6.0000    0    12.011   -3.808722    1.984182    0.001214
   7 C     6.0000    0    12.011   -3.048733   -2.502765   -0.001623
   8 C     6.0000    0    12.011   -4.729256   -0.476345   -0.000386
   9 H     1.0000    0     1.008   -0.520171    4.345440    0.002829
  10 H     1.0000    0     1.008    0.827327   -3.657706   -0.002253
  11 H     1.0000    0     1.008    3.635279    2.929347    0.002078
  12 H     1.0000    0     1.008   -5.106860    3.563490    0.002175
  13 H     1.0000    0     1.008   -3.759004   -4.419749   -0.002873
  14 H     1.0000    0     1.008   -6.746169   -0.816170   -0.000669

--------------------------------
INTERNAL COORDINATES (ANGSTROEM)
--------------------------------
 Cl     0   0   0     0.000000000000     0.00000000     0.00000000
 Cl     1   0   0     2.941317209158     0.00000000     0.00000000
 C      1   2   0     2.735861943638    57.48317113     0.00000000
 C      3   1   2     1.394810203348   129.92880432   122.25003578
[...]
   3 C :   -0.132866
   4 C :   -0.189299
   5 C :    0.034810
   6 C :   -0.124736
   7 C :   -0.094369
   8 C :   -0.162418
   9 H :    0.131620
  10 H :    0.128354
  11 H :    0.158584
  12 H :    0.133382
  13 H :    0.133106
  14 H :    0.153679
Sum of atomic charges:   -0.0000000

--------------------------------
MULLIKEN REDUCED ORBITAL CHARGES
--------------------------------
  0 Cls       :     5.910121  s :     5.910121
      pz      :     3.475391  p :    11.154907
      px      :     3.815330
      py      :     3.864186
      dz2     :     0.015186  d :     0.053452
      dxz     :     0.016164
      dyz     :     0.012155
      dx2y2   :     0.005465
      dxy     :     0.004482
      f0      :     0.000735  f :     0.004905
      f+1     :     0.001396
      f-1     :     0.000934
      f+2     :     0.000662
      f-2     :     0.000900
      f+3     :     0.000143
      f-3     :     0.000135
  1 Cls       :     5.910113  s :     5.910113
      pz      :     3.475970  p :    11.154890
      px      :     3.815322
      py      :     3.863598
      dz2     :     0.015159  d :     0.053452
      dxz     :     0.016147
      dyz     :     0.012173
      dx2y2   :     0.005474
      dxy     :     0.004499
      f0      :     0.000733  f :     0.004905
      f+1     :     0.001392
      f-1     :     0.000936
      f+2     :     0.000662
      f-2     :     0.000903
      f+3     :     0.000144
      f-3     :     0.000136
  2 C s       :     3.220319  s :     3.220319
      pz      :     0.954920  p :     2.551983
      px      :     0.745198
      py      :     0.851865
      dz2     :     0.006708  d :     0.140783
      dxz     :     0.016477
      dyz     :     0.026284
      dx2y2   :     0.048942
      dxy     :     0.042372
      f0      :     0.001709  f :     0.010019
      f+1     :     0.000898
      f-1     :     0.000500
      f+2     :     0.000828
      f-2     :     0.001093
      f+3     :     0.002049
      f-3     :     0.002943
  3 C s       :     3.153535  s :     3.153535
      pz      :     0.961760  p :     2.877504
      px      :     0.918126
      py      :     0.997618
      dz2     :     0.003027  d :     0.094207
      dxz     :     0.022856
      dyz     :     0.008422
      dx2y2   :     0.028813
      dxy     :     0.031089
      f0      :     0.001356  f :     0.007620
      f+1     :     0.000477
      f-1     :     0.000634
      f+2     :     0.000698
      f-2     :     0.000864
      f+3     :     0.001457
      f-3     :     0.002134
  4 C s       :     3.238825  s :     3.238825
      pz      :     0.936715  p :     2.846639
      px      :     0.958274
      py      :     0.951650
      dz2     :     0.003819  d :     0.096269
      dxz     :     0.016734
      dyz     :     0.013085
      dx2y2   :     0.018629
      dxy     :     0.044002
      f0      :     0.001372  f :     0.007565
      f+1     :     0.000503
      f-1     :     0.000556
      f+2     :     0.001110
      f-2     :     0.000388
      f+3     :     0.001363
      f-3     :     0.002273
  5 C s       :     3.175973  s :     3.175973
      pz      :     0.724068  p :     2.604452
      px      :     0.873786
      py      :     1.006598
      dz2     :     0.040705  d :     0.175812
      dxz     :     0.049149
      dyz     :     0.026988
      dx2y2   :     0.032964
      dxy     :     0.026006
      f0      :     0.001667  f :     0.008953
      f+1     :     0.001423
      f-1     :     0.001146
      f+2     :     0.001468
      f-2     :     0.001255
      f+3     :     0.000877
      f-3     :     0.001118
  6 C s       :     3.218138  s :     3.218138
      pz      :     0.949370  p :     2.797561
      px      :     0.905826
      py      :     0.942365
      dz2     :     0.004892  d :     0.101598
      dxz     :     0.016751
      dyz     :     0.012669
      dx2y2   :     0.021201
      dxy     :     0.046084
      f0      :     0.001358  f :     0.007439
      f+1     :     0.000463
      f-1     :     0.000554
      f+2     :     0.001144
      f-2     :     0.000353
      f+3     :     0.001468
      f-3     :     0.002098
  7 C s       :     3.153401  s :     3.153401
      pz      :     0.946435  p :     2.832590
      px      :     0.903893
      py      :     0.982262
      dz2     :     0.003294  d :     0.100950
      dxz     :     0.020895
      dyz     :     0.008415
      dx2y2   :     0.034223
      dxy     :     0.034125
      f0      :     0.001352  f :     0.007428
      f+1     :     0.000446
      f-1     :     0.000616
      f+2     :     0.000690
      f-2     :     0.000798
      f+3     :     0.001381
      f-3     :     0.002144
  8 C s       :     3.238775  s :     3.238775
      pz      :     0.944062  p :     2.812932
      px      :     0.997778
      py      :     0.871092
      dz2     :     0.004975  d :     0.103134
      dxz     :     0.006706
      dyz     :     0.022865
      dx2y2   :     0.045655
      dxy     :     0.022934
      f0      :     0.001338  f :     0.007576
      f+1     :     0.000667
      f-1     :     0.000405
      f+2     :     0.000418
      f-2     :     0.001089
      f+3     :     0.001405
      f-3     :     0.002254
  9 H s       :     0.829602  s :     0.829602
      pz      :     0.012893  p :     0.037024
      px      :     0.009782
      py      :     0.014349
      dz2     :     0.000039  d :     0.001755
      dxz     :     0.000092
      dyz     :     0.000637
      dx2y2   :     0.000454
      dxy     :     0.000532
 10 H s       :     0.831755  s :     0.831755
      pz      :     0.012177  p :     0.038113
      px      :     0.011664
      py      :     0.014272
      dz2     :     0.000042  d :     0.001779
      dxz     :     0.000315
      dyz     :     0.000428
      dx2y2   :     0.000921
      dxy     :     0.000072
 11 H s       :     0.804858  s :     0.804858
      pz      :     0.010689  p :     0.034342
      px      :     0.011889
      py      :     0.011764
      dz2     :     0.000039  d :     0.002216
      dxz     :     0.000044
      dyz     :     0.001031
      dx2y2   :     0.000122
      dxy     :     0.000980
 12 H s       :     0.830563  s :     0.830563
      pz      :     0.012845  p :     0.034388
      px      :     0.010299
      py      :     0.011243
      dz2     :     0.000014  d :     0.001667
      dxz     :     0.000293
      dyz     :     0.000444
      dx2y2   :     0.000853
      dxy     :     0.000063
 13 H s       :     0.829423  s :     0.829423
      pz      :     0.012796  p :     0.035731
      px      :     0.009126
      py      :     0.013809
      dz2     :     0.000035  d :     0.001740
      dxz     :     0.000101
      dyz     :     0.000637
      dx2y2   :     0.000435
      dxy     :     0.000532
 14 H s       :     0.811613  s :     0.811613
      pz      :     0.012682  p :     0.033083
      px      :     0.012175
      py      :     0.008226
      dz2     :     0.000002  d :     0.001625
      dxz     :     0.000696
      dyz     :     0.000032
      dx2y2   :     0.000124
      dxy     :     0.000770


                     *******************************
                     * LOEWDIN POPULATION ANALYSIS *
                     *******************************

----------------------
LOEWDIN ATOMIC CHARGES
----------------------
   0 Cl:    0.313336
   1 Cl:    0.313346
   2 C :   -0.142537
   3 C :    0.004039
   4 C :    0.004744
   5 C :   -0.569681
   6 C :   -0.007376
   7 C :   -0.004905
   8 C :   -0.005404
   9 H :    0.019991
  10 H :    0.023064
  11 H :   -0.007626
  12 H :    0.019305
  13 H :    0.019995
  14 H :    0.019710

-------------------------------
LOEWDIN REDUCED ORBITAL CHARGES
-------------------------------
  0 Cls       :     5.605696  s :     5.605696
      pz      :     3.444681  p :    10.985854
      px      :     3.739427
      py      :     3.801747
      dz2     :     0.024524  d :     0.085442
      dxz     :     0.024540
      dyz     :     0.020175
      dx2y2   :     0.009033
      dxy     :     0.007171
      f0      :     0.001582  f :     0.009672
      f+1     :     0.002478
      f-1     :     0.001803
      f+2     :     0.001492
      f-2     :     0.001734
      f+3     :     0.000306
      f-3     :     0.000276
  1 Cls       :     5.605691  s :     5.605691
      pz      :     3.445206  p :    10.985848
      px      :     3.739419
      py      :     3.801223
      dz2     :     0.024483  d :     0.085443
      dxz     :     0.024513
      dyz     :     0.020200
      dx2y2   :     0.009050
      dxy     :     0.007198
      f0      :     0.001578  f :     0.009672
      f+1     :     0.002472
      f-1     :     0.001805
      f+2     :     0.001493
      f-2     :     0.001739
      f+3     :     0.000308
      f-3     :     0.000278
  2 C s       :     2.712326  s :     2.712326
      pz      :     0.862042  p :     2.867974
      px      :     0.969004
      py      :     1.036927
      dz2     :     0.034448  d :     0.506082
      dxz     :     0.056129
      dyz     :     0.077421
      dx2y2   :     0.181504
      dxy     :     0.156580
      f0      :     0.003845  f :     0.056155
      f+1     :     0.004610
      f-1     :     0.004163
      f+2     :     0.004782
      f-2     :     0.007019
      f+3     :     0.012860
      f-3     :     0.018877
  3 C s       :     2.715154  s :     2.715154
      pz      :     0.846860  p :     2.843752
      px      :     1.012448
      py      :     0.984443
      dz2     :     0.026655  d :     0.393548
      dxz     :     0.070031
      dyz     :     0.023014
      dx2y2   :     0.137474
      dxy     :     0.136374
      f0      :     0.002373  f :     0.043507
      f+1     :     0.003854
      f-1     :     0.003285
      f+2     :     0.004324
      f-2     :     0.005431
      f+3     :     0.010179
      f-3     :     0.014059
  4 C s       :     2.716173  s :     2.716173
      pz      :     0.836111  p :     2.846155
      px      :     1.016709
      py      :     0.993336
      dz2     :     0.026645  d :     0.389145
      dxz     :     0.050966
      dyz     :     0.039773
      dx2y2   :     0.109686
      dxy     :     0.162074
      f0      :     0.002443  f :     0.043782
      f+1     :     0.003701
      f-1     :     0.003509
      f+2     :     0.007309
      f-2     :     0.002411
      f+3     :     0.010227
      f-3     :     0.014182
  5 C s       :     2.839087  s :     2.839087
      pz      :     0.935206  p :     3.013523
      px      :     1.025217
      py      :     1.053100
      dz2     :     0.159878  d :     0.656890
      dxz     :     0.178139
      dyz     :     0.107852
      dx2y2   :     0.125786
      dxy     :     0.085235
      f0      :     0.010093  f :     0.060181
      f+1     :     0.010315
      f-1     :     0.008421
      f+2     :     0.008527
      f-2     :     0.010014
      f+3     :     0.005751
      f-3     :     0.007059
  6 C s       :     2.721219  s :     2.721219
      pz      :     0.845042  p :     2.853415
      px      :     1.004417
      py      :     1.003957
      dz2     :     0.025377  d :     0.389628
      dxz     :     0.051254
      dyz     :     0.038761
      dx2y2   :     0.112357
      dxy     :     0.161879
      f0      :     0.002365  f :     0.043115
      f+1     :     0.003608
      f-1     :     0.003477
      f+2     :     0.007164
      f-2     :     0.002204
      f+3     :     0.010110
      f-3     :     0.014186
  7 C s       :     2.720669  s :     2.720669
      pz      :     0.841465  p :     2.850509
      px      :     1.017831
      py      :     0.991213
      dz2     :     0.025295  d :     0.390537
      dxz     :     0.067058
      dyz     :     0.022495
      dx2y2   :     0.141374
      dxy     :     0.134315
      f0      :     0.002352  f :     0.043190
      f+1     :     0.003816
      f-1     :     0.003250
      f+2     :     0.004382
      f-2     :     0.004954
      f+3     :     0.010193
      f-3     :     0.014243
  8 C s       :     2.722517  s :     2.722517
      pz      :     0.837648  p :     2.849683
      px      :     0.988936
      py      :     1.023100
      dz2     :     0.025555  d :     0.390114
      dxz     :     0.017038
      dyz     :     0.072536
      dx2y2   :     0.159145
      dxy     :     0.115840
      f0      :     0.002349  f :     0.043090
      f+1     :     0.003204
      f-1     :     0.003847
      f+2     :     0.002556
      f-2     :     0.006798
      f+3     :     0.010127
      f-3     :     0.014208
  9 H s       :     0.802096  s :     0.802096
      pz      :     0.042508  p :     0.148842
      px      :     0.038631
      py      :     0.067703
      dz2     :     0.002674  d :     0.029070
      dxz     :     0.001044
      dyz     :     0.007353
      dx2y2   :     0.009077
      dxy     :     0.008922
 10 H s       :     0.799599  s :     0.799599
      pz      :     0.040233  p :     0.148190
      px      :     0.050803
      py      :     0.057154
      dz2     :     0.002730  d :     0.029147
      dxz     :     0.003510
      dyz     :     0.004892
      dx2y2   :     0.009326
      dxy     :     0.008688
 11 H s       :     0.816393  s :     0.816393
      pz      :     0.035454  p :     0.159149
      px      :     0.036477
      py      :     0.087218
      dz2     :     0.003408  d :     0.032085
      dxz     :     0.000249
      dyz     :     0.008196
      dx2y2   :     0.010527
      dxy     :     0.009705
 12 H s       :     0.803913  s :     0.803913
      pz      :     0.041449  p :     0.147927
      px      :     0.049238
      py      :     0.057240
      dz2     :     0.002677  d :     0.028855
      dxz     :     0.003303
      dyz     :     0.004997
      dx2y2   :     0.009221
      dxy     :     0.008657
 13 H s       :     0.803743  s :     0.803743
      pz      :     0.041038  p :     0.147435
      px      :     0.038598
      py      :     0.067799
      dz2     :     0.002663  d :     0.028827
      dxz     :     0.001054
      dyz     :     0.007192
      dx2y2   :     0.008929
      dxy     :     0.008989
 14 H s       :     0.803738  s :     0.803738
      pz      :     0.041025  p :     0.147801
      px      :     0.071435
      py      :     0.035341
      dz2     :     0.002669  d :     0.028750
      dxz     :     0.007911
      dyz     :     0.000269
      dx2y2   :     0.008710
      dxy     :     0.009192


                      *****************************
                      * MAYER POPULATION ANALYSIS *
                      *****************************

  NA   - Mulliken gross atomic population
  ZA   - Total nuclear charge
  QA   - Mulliken gross atomic charge
  VA   - Mayer's total valence
  BVA  - Mayer's bonded valence
  FA   - Mayer's free valence

  ATOM       NA         ZA         QA         VA         BVA        FA
  0 Cl    17.1234    17.0000    -0.1234     1.1708     1.1708    -0.0000
  1 Cl    17.1234    17.0000    -0.1234     1.1708     1.1708    -0.0000
  2 C      5.9231     6.0000     0.0769     3.6401     3.6401    -0.0000
  3 C      6.1329     6.0000    -0.1329     3.9010     3.9010    -0.0000
  4 C      6.1893     6.0000    -0.1893     4.0048     4.0048    -0.0000
  5 C      5.9652     6.0000     0.0348     4.1936     4.1936     0.0000
  6 C      6.1247     6.0000    -0.1247     3.9264     3.9264    -0.0000
  7 C      6.0944     6.0000    -0.0944     3.8917     3.8917    -0.0000
  8 C      6.1624     6.0000    -0.1624     3.9186     3.9186    -0.0000
  9 H      0.8684     1.0000     0.1316     1.0044     1.0044    -0.0000
 10 H      0.8716     1.0000     0.1284     1.0308     1.0308    -0.0000
 11 H      0.8414     1.0000     0.1586     0.9954     0.9954     0.0000
 12 H      0.8666     1.0000     0.1334     0.9998     0.9998    -0.0000
 13 H      0.8669     1.0000     0.1331     0.9975     0.9975    -0.0000
 14 H      0.8463     1.0000     0.1537     0.9905     0.9905     0.0000

  Mayer bond orders larger than 0.1
B(  0-Cl,  5-C ) :   1.0969 B(  1-Cl,  5-C ) :   1.0970 B(  2-C ,  3-C ) :   1.3501 
B(  2-C ,  4-C ) :   1.3282 B(  2-C ,  5-C ) :   1.0015 B(  3-C ,  6-C ) :   1.4176 
B(  3-C ,  9-H ) :   0.9553 B(  4-C ,  7-C ) :   1.4591 B(  4-C , 10-H ) :   0.9670 
B(  5-C , 11-H ) :   0.9699 B(  6-C ,  8-C ) :   1.4164 B(  6-C , 12-H ) :   0.9784 
B(  7-C ,  8-C ) :   1.3777 B(  7-C , 13-H ) :   0.9653 B(  8-C , 14-H ) :   0.9693 


-------
TIMINGS
-------

Total SCF time: 0 days 0 hours 4 min 33 sec 

Total time                  ....     273.280 sec
Sum of individual times     ....     273.038 sec  ( 99.9%)

Fock matrix formation       ....     269.238 sec  ( 98.5%)
  XC integration            ....       9.587 sec  (  3.6% of F)
    Basis function eval.    ....       3.186 sec  ( 33.2% of XC)
    Density eval.           ....       1.575 sec  ( 16.4% of XC)
    XC-Functional eval.     ....       0.198 sec  (  2.1% of XC)
    XC-Potential eval.      ....       4.478 sec  ( 46.7% of XC)
Diagonalization             ....       0.059 sec  (  0.0%)
Density matrix formation    ....       0.016 sec  (  0.0%)
Population analysis         ....       0.124 sec  (  0.0%)
Initial guess               ....       0.039 sec  (  0.0%)
Orbital Transformation      ....       0.000 sec  (  0.0%)
Orbital Orthonormalization  ....       0.032 sec  (  0.0%)
DIIS solution               ....       0.012 sec  (  0.0%)
SOSCF solution              ....       0.132 sec  (  0.0%)
Grid generation             ....       3.417 sec  (  1.3%)

-------------------------   --------------------
FINAL SINGLE POINT ENERGY     -1190.605519397091
-------------------------   --------------------

                                *** OPTIMIZATION RUN DONE ***

                            ***************************************
                            *     ORCA property calculations      *
                            ***************************************

                                    ---------------------
                                    Active property flags
                                    ---------------------
   (+) Dipole Moment


------------------------------------------------------------------------------
                       ORCA ELECTRIC PROPERTIES CALCULATION
------------------------------------------------------------------------------

Dipole Moment Calculation                       ... on
Quadrupole Moment Calculation                   ... off
Polarizability Calculation                      ... off
GBWName                                         ... /gpfs/cfel/group/cmi/beegfs.migration/yachmena/ben_cl/benzal_chloride_b3lyp_def2tzvpp_gopt.gbw
Electron density file                           ... /gpfs/cfel/group/cmi/beegfs.migration/yachmena/ben_cl/benzal_chloride_b3lyp_def2tzvpp_gopt.scfp.tmp
The origin for moment calculation is the CENTER OF MASS  = ( 1.323741, -0.075804 -0.000014)

-------------
DIPOLE MOMENT
-------------
                                X             Y             Z
Electronic contribution:     13.77815      -1.18675      -0.00070
Nuclear contribution   :    -14.65006       1.51162       0.00093
                        -----------------------------------------
Total Dipole Moment    :     -0.87192       0.32486       0.00023
                        -----------------------------------------
Magnitude (a.u.)       :      0.93047
Magnitude (Debye)      :      2.36506


Timings for individual modules:

Sum of individual times         ...     6177.316 sec (= 102.955 min)
GTO integral calculation        ...        5.285 sec (=   0.088 min)   0.1 %
SCF iterations                  ...     3898.179 sec (=  64.970 min)  63.1 %
SCF Gradient evaluation         ...     2272.965 sec (=  37.883 min)  36.8 %
Geometry relaxation             ...        0.887 sec (=   0.015 min)   0.0 %
                             ****ORCA TERMINATED NORMALLY****
TOTAL RUN TIME: 0 days 1 hours 42 minutes 58 seconds 245 msec
