
                                 *****************
                                 * O   R   C   A *
                                 *****************

                                            #,                                       
                                            ###                                      
                                            ####                                     
                                            #####                                    
                                            ######                                   
                                           ########,                                 
                                     ,,################,,,,,                         
                               ,,#################################,,                 
                          ,,##########################################,,             
                       ,#########################################, ''#####,          
                    ,#############################################,,   '####,        
                  ,##################################################,,,,####,       
                ,###########''''           ''''###############################       
              ,#####''   ,,,,##########,,,,          '''####'''          '####       
            ,##' ,,,,###########################,,,                        '##       
           ' ,,###''''                  '''############,,,                           
         ,,##''                                '''############,,,,        ,,,,,,###''
      ,#''                                            '''#######################'''  
     '                                                          ''''####''''         
             ,#######,   #######,   ,#######,      ##                                
            ,#'     '#,  ##    ##  ,#'     '#,    #''#        ,####,   ,####,        
            ##       ##  ##   ,#'  ##            #'  '#       #'       #'  '#        
            ##       ##  #######   ##           ,######,      #####,   #    #        
            '#,     ,#'  ##    ##  '#,     ,#' ,#      #,     #,   #   #,  ,#        
             '#######'   ##     ##  '#######'  #'      '#     '####' # '####'        



                #########################################################
                #                        -***-                          #
                #          Department of theory and spectroscopy        #
                #                                                       #
                #                      Frank Neese                      #
                #                                                       #
                #     Directorship, Architecture, Infrastructure        #
                #                    SHARK, DRIVERS                     #
                #        Core code/Algorithms in most modules           #
                #                                                       #
                #        Max Planck Institute fuer Kohlenforschung      #
                #                Kaiser Wilhelm Platz 1                 #
                #                 D-45470 Muelheim/Ruhr                 #
                #                      Germany                          #
                #                                                       #
                #                  All rights reserved                  #
                #                        -***-                          #
                #########################################################


                         Program Version 6.0.1  -  RELEASE   -


 With contributions from (in alphabetic order):
[Max-Planck-Institut fuer Kohlenforschung]                               
  Daniel Aravena         : Magnetic Suceptibility                        
  Michael Atanasov       : Ab Initio Ligand Field Theory (pilot matlab implementation)
  Alexander A. Auer      : GIAO ZORA, VPT2 properties, NMR spectrum      
  Ute Becker             : All parallelization in ORCA, NUMFREQ, NUMCALC 
  Giovanni Bistoni       : ED, misc. LED, open-shell LED, HFLD           
  Martin Brehm           : Molecular dynamics                            
  Dmytro Bykov           : pre 5.0 version of the SCF Hessian            
  Marcos Casanova-Páez   : Triplet and SCS-CIS(D). UHF-(DLPNO)-IP/EA/STEOM-CCSD. UHF-CVS-IP/STEOM-CCSD   
  Vijay G. Chilkuri      : MRCI spin determinant printing, contributions to CSF-ICE 
  Pauline Colinet        : FMM embedding                                 
  Dipayan Datta          : RHF DLPNO-CCSD density                        
  Achintya Kumar Dutta   : EOM-CC, STEOM-CC                              
  Nicolas Foglia         : Exact transition moments, OPA infrastructure, MCD improvements    
  Dmitry Ganyushin       : Spin-Orbit,Spin-Spin,Magnetic field MRCI      
  Miquel Garcia-Rates    : C-PCM and meta-GGA Hessian, CCSD/C-PCM, Gaussian charge scheme 
  Tiago L. C. Gouveia    : GS-ROHF, GS-ROCIS                             
  Yang Guo               : DLPNO-NEVPT2, F12-NEVPT2, CIM, IAO-localization        
  Andreas Hansen         : Spin unrestricted coupled pair/coupled cluster methods 
  Ingolf Harden          : AUTO-CI MPn and infrastructure                
  Benjamin Helmich-Paris : MC-RPA, TRAH-(SCF,CASSCF), AVAS, COSX integrals, SCF dyn. polar. 
  Lee Huntington         : MR-EOM, pCC                                   
  Robert Izsak           : Overlap fitted RIJCOSX, COSX-SCS-MP3, EOM     
  Riya Kayal             : Wick's Theorem for AUTO-CI, AUTO-CI UHF-CCSDT 
  Emily Kempfer          : AUTO-CI, RHF CISDT and CCSDT                  
  Christian Kollmar      : KDIIS, OOCD, Brueckner-CCSD(T), CCSD density, CASPT2, CASPT2-K, improved NEVPT2 
  Axel Koslowski         : Symmetry handling                             
  Simone Kossmann        : meta-GGA functionals, TD-DFT gradient, OOMP2, (MP2 Hessian; deprecated post 5.0) 
  Lucas Lang             : DCDCAS                                        
  Marvin Lechner         : AUTO-CI (C++ implementation), FIC-MRCC        
  Spencer Leger          : CASSCF response                               
  Dagmar Lenk            : GEPOL surface, SMD, ORCA-2-JSON               
  Dimitrios Liakos       : Extrapolation schemes; Compound Job, initial MDCI parallelization 
  Dimitrios Manganas     : Further ROCIS development; embedding schemes. LFT, Crystal Embedding 
  Dimitrios Pantazis     : SARC Basis sets                               
  Anastasios Papadopoulos: AUTO-CI, single reference methods and gradients 
  Taras Petrenko         : pre 6.0 DFT Hessian and TD-DFT gradient, (ASA, deprecated), ECA, 1-Electron XAS/XES, NRVS 
  Peter Pinski           : DLPNO-MP2, DLPNO-MP2 Gradient                 
  Christoph Reimann      : Effective Core Potentials                     
  Marius Retegan         : Local ZFS, SOC                                
  Christoph Riplinger    : Optimizer, TS searches, QM/MM, DLPNO-CCSD(T), (RO)-DLPNO pert. Triples 
  Michael Roemelt        : Original ROCIS implementation                 
  Masaaki Saitow         : Open-shell DLPNO-CCSD energy and density      
  Barbara Sandhoefer     : DKH picture change effects                    
  Kantharuban Sivalingam : CASSCF convergence/infrastructure, NEVPT2 and variants, FIC-MRCI 
  Bernardo de Souza      : ESD, SOC TD-DFT                               
  Georgi L. Stoychev     : AutoAux, RI-MP2 NMR, DLPNO-MP2 response, X2C  
  Van Anh Tran           : RI-MP2 g-tensors                              
  Willem Van den Heuvel  : Paramagnetic NMR                              
  Zikuan Wang            : NOTCH, Electric field optimization            
  Frank Wennmohs         : Technical directorship and infrastructure     
  Hang Xu                : AUTO-CI-Response properties                   
                                                                         
[FACCTs GmbH]                                                            
  Markus Bursch, Miquel Garcia-Rates, Christoph Riplinger, Bernardo de Souza, Georgi L. Stoychev 
                                                                 
  APM, Basis sets (HGBS, AHGBS, def-TZVP (Ac-Lr), def2-XVPD (La-Lu)), CI-OPT, improved COSX, DLPNO-Multilevel,           
  DOCKER, DRACO, updates on ESD, GOAT, IRC, LR-CPCM, MBIS, meta-GGA TD-DFT gradient, ML-optimized integration grids, 
  MM, NACMEs, nearIR, NEB, NEB-TS, NL-DFT gradient (VV10), 2- and 3-layer-ONIOM, interface openCOSMO-RS, QMMM,   
  Crystal-QMMM, SF, symmetry and pop. for TD-DFT, r2SCAN hybrids, SOLVATOR                                   
                                                                         
[Other institutions]                                                     
  V. Asgeirsson          : NEB                                           
  Christoph Bannwarth    : sTDA-DFT, sTD-DFT, PBEh-3c, B97-3c, D3        
  Sebastian Ehlert       : rSCAN, r2SCAN, r2SCAN-3c, D4, dhf basis sets  
  Marvin Friede          : D4 for Fr, Ra, Ac-Lr                          
  Lars Goerigk           : TD-DFT with DH, B97 family of functionals     
  Stefan Grimme          : VdW corrections, initial TS optimization, DFT functionals, gCP, sTDA/sTD-DF 
  Waldemar Hujo          : DFT-NL                                        
  H. Jonsson             : NEB                                           
  Holger Kruse           : gCP                                           
  Marcel Mueller         : wB97X-3c, vDZP basis set                      
  Hagen Neugebauer       : wr2SCAN                                       
  Tobias Risthaus        : range-separated hybrid DFT                    
  Lukas Wittmann         : regularized MP2, r2SCAN double-hybrids, wr2SCAN        
                                                                         
We gratefully acknowledge several colleagues who have allowed us to      
interface, adapt or use parts of their codes:                            
  Ed Valeev, F. Pavosevic, A. Kumar             : LibInt (2-el integral package), F12 methods 
  Garnet Chan, S. Sharma, J. Yang, R. Olivares  : DMRG                   
  Ulf Ekstrom                                   : XCFun DFT Library      
  Mihaly Kallay                                 : mrcc  (arbitrary order and MRCC methods)
  Frank Weinhold                                : gennbo (NPA and NBO analysis)           
  Simon Mueller                                 : openCOSMO-RS                            
  Christopher J. Cramer and Donald G. Truhlar   : smd solvation model                     
  S Lehtola, MJT Oliveira, MAL Marques          : LibXC Library                           
  Liviu Ungur et al                             : ANISO software                          


 Your calculation uses the libint2 library for the computation of 2-el integrals
 For citations please refer to: http://libint.valeyev.net

 Your ORCA version has been built with support for libXC version: 6.2.2
 For citations please refer to: https://libxc.gitlab.io

 This ORCA versions uses:
   CBLAS   interface :  Fast vector & matrix operations
   LAPACKE interface :  Fast linear algebra routines
   SCALAPACK package :  Parallel linear algebra routines
   Shared memory     :  Shared parallel matrices


================================================================================

----- Orbital basis set information -----
Your calculation utilizes the basis: DKH-def2-TZVP
   Exponents from def2-TZVP [F. Weigend and R. Ahlrichs, Phys. Chem. Chem. Phys. 7, 3297 (2005)],
   recontracted for DKH2 by D. A. Pantazis.

The basis set includes element-specific modifications.

Your calculation utilizes the basis: old-DKH-TZVP 
   as implemented in previous versions of ORCA 


                    <<< All basis sets will be decontracted >>>

================================================================================
                                        WARNINGS
                       Please study these warnings very carefully!
================================================================================

WARNING: Old DensityContainer found on disk!
         Will remove this file - 
         If you want to keep old densities, please start your calculation with a different basename. 


WARNING: Nuclear properties are sensitive to picture change effects!
  ===> : To get the full correction, set %rel PictureChange = 2

================================================================================
                                       INPUT FILE
================================================================================
NAME = benzal_chloride_rks_def2tzvpp_efg_ent1.inp
|  1> ! RKS NORI TPSS DKH2 DKH-def2-TZVP Decontract VERYTIGHTSCF SlowConv
|  2> 
|  3> %basis newgto Cl "old-DKH-TZVP" end
|  4> end
|  5> 
|  6> %method
|  7>   SpecialGridAtoms 17
|  8>   SpecialGridIntAcc 7
|  9> end
| 10> 
| 11> * xyz 0 1
| 12>   Cl  2.53472848782682     -0.16102191079696     -1.47533772496125
| 13>   Cl  2.53474299300801     -0.16316662563317      1.47517546572605
| 14>   C   0.24840819569841      0.20233613374586      0.00018661211263
| 15>   C   -0.64068102335793      1.27428478025160      0.00081903411514
| 16>   C   -0.24820006145181     -1.10182312870802     -0.00064775915707
| 17>   C   1.71950353838917      0.48474796831750      0.00039650463350
| 18>   C   -2.01409910612749      1.04896380692966      0.00061990571895
| 19>   C   -1.61628180274550     -1.32486894586471     -0.00084207221412
| 20>   C   -2.50346093349892     -0.25026279308798     -0.00021131814678
| 21>   H   -0.26185913521701      2.28891120618995      0.00146679383123
| 22>   H   0.43892671792030     -1.93733470382279     -0.00114439389832
| 23>   H   1.92010313574198      1.54853896438079      0.00116469460244
| 24>   H   -2.69583866771020      1.88917513731446      0.00111323139944
| 25>   H   -1.99452267977882     -2.33873833253597     -0.00149158926928
| 26>   H   -3.57097965869701     -0.42903155668024     -0.00036738449256
| 27> *
| 28> 
| 29> 
| 30> %eprnmr nuclei = all {fgrad}
| 31> end
| 32> 
| 33> %rel PictureChange true
| 34> end
| 35> 
| 36> 
| 37>                          ****END OF INPUT****
================================================================================

                       ****************************
                       * Single Point Calculation *
                       ****************************

---------------------------------
CARTESIAN COORDINATES (ANGSTROEM)
---------------------------------
  Cl     2.534728   -0.161022   -1.475338
  Cl     2.534743   -0.163167    1.475175
  C      0.248408    0.202336    0.000187
  C     -0.640681    1.274285    0.000819
  C     -0.248200   -1.101823   -0.000648
  C      1.719504    0.484748    0.000397
  C     -2.014099    1.048964    0.000620
  C     -1.616282   -1.324869   -0.000842
  C     -2.503461   -0.250263   -0.000211
  H     -0.261859    2.288911    0.001467
  H      0.438927   -1.937335   -0.001144
  H      1.920103    1.548539    0.001165
  H     -2.695839    1.889175    0.001113
  H     -1.994523   -2.338738   -0.001492
  H     -3.570980   -0.429032   -0.000367

----------------------------
CARTESIAN COORDINATES (A.U.)
----------------------------
  NO LB      ZA    FRAG     MASS         X           Y           Z
   0 Cl   17.0000    0    35.453    4.789943   -0.304287   -2.787984
   1 Cl   17.0000    0    35.453    4.789970   -0.308340    2.787678
   2 C     6.0000    0    12.011    0.469423    0.382360    0.000353
   3 C     6.0000    0    12.011   -1.210712    2.408049    0.001548
   4 C     6.0000    0    12.011   -0.469030   -2.082144   -0.001224
   5 C     6.0000    0    12.011    3.249391    0.916041    0.000749
   6 C     6.0000    0    12.011   -3.806096    1.982254    0.001171
   7 C     6.0000    0    12.011   -3.054330   -2.503639   -0.001591
   8 C     6.0000    0    12.011   -4.730856   -0.472928   -0.000399
   9 H     1.0000    0     1.008   -0.494842    4.325415    0.002772
  10 H     1.0000    0     1.008    0.829451   -3.661032   -0.002163
  11 H     1.0000    0     1.008    3.628469    2.926315    0.002201
  12 H     1.0000    0     1.008   -5.094397    3.570024    0.002104
  13 H     1.0000    0     1.008   -3.769102   -4.419575   -0.002819
  14 H     1.0000    0     1.008   -6.748174   -0.810752   -0.000694

--------------------------------
INTERNAL COORDINATES (ANGSTROEM)
--------------------------------
 Cl     0   0   0     0.000000000000     0.00000000     0.00000000
 Cl     1   0   0     2.950513970215     0.00000000     0.00000000
 C      1   2   0     2.745261666222    57.49454165     0.00000000
 C      3   1   2     1.392678692357   129.33084850   121.48565861
 C      3   1   2     1.395511318152    99.92474320   263.60411174
 C      3   1   2     1.497957941882    37.54637753    33.99916194
 C      4   3   1     1.391778290803   120.35591400   135.98812896
 C      5   3   1     1.386144698496   120.10600770   213.06540110
 C      7   4   3     1.388331893754   119.95606167     0.00000000
 H      4   3   1     1.083038885147   119.85355275   315.98828859
 H      5   3   1     1.081768482499   119.71981038    33.06524680
 H      6   3   1     1.082539639865   111.54597613   118.13647311
 H      7   4   3     1.082000070658   119.73867611   180.00018416
 H      8   5   3     1.082126478819   119.71864131   179.99992796
 H      9   7   4     1.082383723012   120.14584737   179.99994022

---------------------------
INTERNAL COORDINATES (A.U.)
---------------------------
 Cl     0   0   0     0.000000000000     0.00000000     0.00000000
 Cl     1   0   0     5.575663358014     0.00000000     0.00000000
 C      1   2   0     5.187792715112    57.49454165     0.00000000
 C      3   1   2     2.631781321102   129.33084850   121.48565861
 C      3   1   2     2.637134208094    99.92474320   263.60411174
 C      3   1   2     2.830730270289    37.54637753    33.99916194
 C      4   3   1     2.630079808754   120.35591400   135.98812896
 C      5   3   1     2.619433862145   120.10600770   213.06540110
 C      7   4   3     2.623567062183   119.95606167     0.00000000
 H      4   3   1     2.046646885315   119.85355275   315.98828859
 H      5   3   1     2.044246172230   119.71981038    33.06524680
 H      6   3   1     2.045703448459   111.54597613   118.13647311
 H      7   4   3     2.044683810427   119.73867611   180.00018416
 H      8   5   3     2.044922687232   119.71864131   179.99992796
 H      9   7   4     2.045408808307   120.14584737   179.99994022

---------------------
BASIS SET INFORMATION
---------------------
There are 3 groups of distinct atoms

 Group   1 Type Cl  : 14s9p1d contracted to 14s9p1d pattern {11111111111111/111111111/1}
 Group   2 Type C   : 11s6p2d1f contracted to 11s6p2d1f pattern {11111111111/111111/11/1}
 Group   3 Type H   : 5s1p contracted to 5s1p pattern {11111/1}

Atom   0Cl   basis set group =>   1
Atom   1Cl   basis set group =>   1
Atom   2C    basis set group =>   2
Atom   3C    basis set group =>   2
Atom   4C    basis set group =>   2
Atom   5C    basis set group =>   2
Atom   6C    basis set group =>   2
Atom   7C    basis set group =>   2
Atom   8C    basis set group =>   2
Atom   9H    basis set group =>   3
Atom  10H    basis set group =>   3
Atom  11H    basis set group =>   3
Atom  12H    basis set group =>   3
Atom  13H    basis set group =>   3
Atom  14H    basis set group =>   3
------------------------------------------------------------------------------
                             ORCA STARTUP CALCULATIONS
------------------------------------------------------------------------------
------------------------------------------------------------------------------
                   ___                                                        
                  /   \      - P O W E R E D   B Y -                         
                 /     \                                                     
                 |  |  |   _    _      __       _____    __    __             
                 |  |  |  | |  | |    /  \     |  _  \  |  |  /  |          
                  \  \/   | |  | |   /    \    | | | |  |  | /  /          
                 / \  \   | |__| |  /  /\  \   | |_| |  |  |/  /          
                |  |  |   |  __  | /  /__\  \  |    /   |      \           
                |  |  |   | |  | | |   __   |  |    \   |  |\   \          
                \     /   | |  | | |  |  |  |  | |\  \  |  | \   \       
                 \___/    |_|  |_| |__|  |__|  |_| \__\ |__|  \__/        
                                                                              
                      - O R C A' S   B I G   F R I E N D -                    
                                      &                                       
                       - I N T E G R A L  F E E D E R -                       
                                                                              
 v1 FN, 2020, v2 2021, v3 2022-2024                                           
------------------------------------------------------------------------------


----------------------
SHARK INTEGRAL PACKAGE
----------------------

Number of atoms                             ...     15
Number of basis functions                   ...    462
Number of shells                            ...    224
Maximum angular momentum                    ...      3
Integral batch strategy                     ... SHARK/LIBINT Hybrid
RI-J (if used) integral strategy            ... SPLIT-RIJ (Revised 2003 algorithm where possible)
Printlevel                                  ...      1
Contraction scheme used                     ... SEGMENTED contraction
Prescreening option                         ... SCHWARTZ
   Thresh                                   ... 1.000e-12
   Tcut                                     ... 1.000e-14
   Tpresel                                  ... 1.000e-14 
Coulomb Range Separation                    ... NOT USED
Exchange Range Separation                   ... NOT USED
Multipole approximations                    ... NOT USED
Finite Nucleus Model                        ... NOT USED
CABS basis                                  ... NOT available
Auxiliary Coulomb fitting basis             ... NOT available
Auxiliary J/K fitting basis                 ... NOT available
Auxiliary Correlation fitting basis         ... NOT available
Auxiliary 'external' fitting basis          ... NOT available

Checking pre-screening integrals            ... done (  0.0 sec) Dimension = 224
Check shell pair data                       ... done (  0.0 sec)
Shell pair information
Shell pair cut-off parameter TPreSel        ...   1.0e-14
Total number of shell pairs                 ...     25200
Shell pairs after pre-screening             ...     16562
Total number of primitive shell pairs       ...     25200
Primitive shell pairs kept                  ...     16550
          la=0 lb=0:   4968 shell pairs
          la=1 lb=0:   5662 shell pairs
          la=1 lb=1:   1621 shell pairs
          la=2 lb=0:   1875 shell pairs
          la=2 lb=1:    952 shell pairs
          la=2 lb=2:    134 shell pairs
          la=3 lb=0:    801 shell pairs
          la=3 lb=1:    409 shell pairs
          la=3 lb=2:    112 shell pairs
          la=3 lb=3:     28 shell pairs

Calculating one electron integrals          ... done (  0.0 sec)
Calculating Nuclear repulsion               ... done (  0.0 sec) ENN=    556.549375678032 Eh

Diagonalization of the overlap matrix:
Smallest eigenvalue                        ... 8.196e-06
Time for diagonalization                   ...    0.014 sec
Threshold for overlap eigenvalues          ... 1.000e-07
Number of eigenvalues below threshold      ... 0
Time for construction of square roots      ...    0.004 sec
Total time needed                          ...    0.019 sec

-------------------
DFT GRID GENERATION
-------------------

General Integration Accuracy     IntAcc      ... 4.388
Radial Grid Type                 RadialGrid  ... OptM3 with GC (2021)
Angular Grid (max. ang.)         AngularGrid ... 4 (Lebedev-302)
Angular grid pruning method      GridPruning ... 4 (adaptive)
Weight generation scheme         WeightScheme... mBecke (2022)
Basis function cutoff            BFCut       ... 1.0000e-12
Integration weight cutoff        WCut        ... 1.0000e-14
Partially contracted basis set               ... off
Rotationally invariant grid construction     ... off
Angular grids for H and He will be reduced by one unit
Core-polarized basis detected: some atoms will have their core
                               angular grid increased.
Steep s-basis detected: some atoms will have their radial
                        grid points doubled.

SpecialGrid => Setting IntAcc for atom type =  17 to   7.0000
SpecialGrid => Setting IntAcc for atom type =  17 to   7.0000
Total number of grid points                  ...    88094
Total number of batches                      ...     1384
Average number of points per batch           ...       63
Average number of grid points per atom       ...     5873
Initializing property integral containers    ... done (  0.0 sec)

SHARK setup successfully completed in   1.6 seconds

Maximum memory used throughout the entire STARTUP-calculation: 71.1 MB
------------------------------------------------------------------------------
                          ORCA RELATIVISTIC HAMILTONIAN
------------------------------------------------------------------------------

Relativistic Method            ... DKH
Order of DKH treatment         ...   2
Treatment of potential         ... V(e,N)
Eps parameter for DKH          ...   0.00000000010000
Nucleus model                  ... Point Nucleus
Speed of light used            ... 137.03598950000000


            ************************************************
            *        DOUGLAS-KROLL-HESS HAMILTONIAN        *
            *   Programmed by FN according to literature   *
            *        procedures. Special thanks to         *
            *       B.A. Hess, M. Reiher and A. Wolf       *
            *     University Erlangen-Nuernberg/Bonn       *
            ************************************************

Uncontracting the basis (first version)        ... done
Number of contracted basis functions           ...  462
Number of uncontracted basis functions         ...  462
Initializing the DKH file                      ... done
Calculating the relativistic integrals         ... done
Storing DKH matrices                           ... done
Computing the DKH transformation               ... done
Storing the transformation variables           ... done
Transforming V and pVp to p**2 space           ... done
First transformation of V and pVp              ... done
Second transformation of Veff                  ... done
Adding kinetic energy                          ... done
Back transformation of Veff to r-space         ... done
Recovering DKH matrices                        ... done
Recontracting the H-matrix (first version)     ... done
Computing the DKH correction to the H-matrix   ... done
Reading the original H-matrix                  ... done
Adding DKH correction to the H-matrix          ... done
Storing the new modified H-matrix              ... done

Maximum memory used throughout the entire REL-calculation: 64.1 MB
-------------------------------------------------------------------------------
                                 ORCA GUESS
                   Start orbitals & Density for SCF / CASSCF
-------------------------------------------------------------------------------

------------
SCF SETTINGS
------------
Hamiltonian:
 Density Functional     Method          .... DFT(GTOs)
 Exchange Functional    Exchange        .... TPSS
 Correlation Functional Correlation     .... TPSS
 LDA part of GGA corr.  LDAOpt          .... PW91-LDA
 Gradients option       PostSCFGGA      .... off
   NL short-range parameter             ....  5.000000

Relativistic Settings:
 Scalar relativistic method             .... Douglas-Kroll-Hess
 Order of DKH procedure    Order        ....    2
 Mode of DKH-treatment                  .... V=V(e,N)
 Speed of light used       Velit        ....       137.035989
 Cutoff-constant           Eps          ....            1e-10 


General Settings:
 Integral files         IntName         .... benzal_chloride_rks_def2tzvpp_efg_ent1
 Hartree-Fock type      HFTyp           .... RHF
 Total Charge           Charge          ....    0
 Multiplicity           Mult            ....    1
 Number of Electrons    NEL             ....   82
 Basis Dimension        Dim             ....  462
 Nuclear Repulsion      ENuc            ....    556.5493756780 Eh

Convergence Acceleration:
 AO-DIIS                CNVDIIS         .... on
   Start iteration      DIISMaxIt       ....     0
   Startup error        DIISStart       ....  0.200000
   # of expansion vecs  DIISMaxEq       ....     5
   Bias factor          DIISBfac        ....   1.050
   Max. coefficient     DIISMaxC        ....  10.000
 MO-DIIS                CNVKDIIS        .... off
 Trust-Rad. Augm. Hess. CNVTRAH         .... auto
   Auto Start mean grad. ratio tolernc. ....  1.125000
   Auto Start start iteration           ....    50
   Auto Start num. interpolation iter.  ....    10
   Max. Number of Micro iterations      ....    24
   Max. Number of Macro iterations      .... Maxiter - #DIIS iter
   Number of Davidson start vectors     ....     2
   Converg. threshold    (grad. norm)   ....   2.000e-06
   Grad. Scal. Fac. for Micro threshold ....   0.100
   Minimum threshold for Micro iter.    ....   1.000e-02
   NR start threshold (gradient norm)   ....   1.000e-04
   Initial trust radius                 ....   0.400
   Minimum AH scaling param. (alpha)    ....   1.000
   Maximum AH scaling param. (alpha)    .... 1000.000
   Quad. conv. algorithm                .... NR
   White noise on init. David. guess    .... on
   Maximum white noise                  ....   0.010
   Pseudo random numbers                .... off
   Inactive MOs                         .... canonical
   Orbital update algorithm             .... Taylor
   Preconditioner                       .... Diag
   Full preconditioner red. dimension   ....   250
 SOSCF                  CNVSOSCF        .... on
   Start iteration      SOSCFMaxIt      ....   150
   Startup grad/error   SOSCFStart      ....  0.001000
   Hessian update       SOSCFHessUp     .... L-BFGS
 Level Shifting         CNVShift        .... on
   Level shift para.    LevelShift      ....    0.2500
   Turn off err/grad.   ShiftErr        ....    0.0000
 Zerner damping         CNVZerner       .... off
 Static damping         CNVDamp         .... on
   Fraction old density DampFac         ....    0.8500
   Max. Damping (<1)    DampMax         ....    0.9800
   Min. Damping (>=0)   DampMin         ....    0.0000
   Turn off err/grad.   DampErr         ....    0.0300

SCF Procedure:
 Maximum # iterations   MaxIter         ....   125
 SCF integral mode      SCFMode         .... Direct
   Integral package                     .... SHARK and LIBINT hybrid scheme
 Reset frequency        DirectResetFreq ....    20
 Integral Threshold     Thresh          ....  1.000e-12 Eh
 Primitive CutOff       TCut            ....  1.000e-14 Eh

Convergence Tolerance:
 Convergence Check Mode ConvCheckMode   .... Total+1el-Energy
 Convergence forced     ConvForced      .... 0
 Energy Change          TolE            ....  1.000e-09 Eh
 1-El. energy change                    ....  1.000e-06 Eh
 Orbital Gradient       TolG            ....  2.000e-06
 Orbital Rotation angle TolX            ....  2.000e-06
 DIIS Error             TolErr          ....  1.000e-08

------------------------------
INITIAL GUESS: MODEL POTENTIAL
------------------------------
Loading DKH relativistic densities                 ... done
Calculating cut-offs                               ... done
Initializing the effective Hamiltonian             ... done
Setting up the integral package (SHARK)            ... done
Starting the Coulomb interaction                   ... done (   0.2 sec)
Making the grid                                    ... done (   0.3 sec)
Mapping shells                                     ... done
Starting the XC term evaluation                    ... done (   0.6 sec)
  promolecular density results
     # of electrons  =     81.993288829
     EX              =    -92.677794913
     EC              =     -2.926912794
     EX+EC           =    -95.604707707
Transforming the Hamiltonian                       ... done (   0.0 sec)
Diagonalizing the Hamiltonian                      ... done (   0.0 sec)
Back transforming the eigenvectors                 ... done (   0.0 sec)
Now organizing SCF variables                       ... done
                      ------------------
                      INITIAL GUESS DONE (   1.1 sec)
                      ------------------
             **** ENERGY FILE WAS UPDATED (benzal_chloride_rks_def2tzvpp_efg_ent1.en.tmp) ****
Finished Guess after   1.1 sec
Maximum memory used throughout the entire GUESS-calculation: 41.3 MB

-------------------------------------------------------------------------------------------
                                      ORCA LEAN-SCF
                              memory conserving SCF solver
-------------------------------------------------------------------------------------------

----------------------------------------D-I-I-S--------------------------------------------
Iteration    Energy (Eh)           Delta-E    RMSDP     MaxDP     DIISErr   Damp  Time(sec)
-------------------------------------------------------------------------------------------
               ***  Starting incremental Fock matrix formation  ***
    1    -1193.7769441983123215     0.00e+00  3.76e-04  1.33e-02  9.35e-01  0.850  21.5
    2    -1193.8151451113565145    -3.82e-02  4.45e-04  1.90e-02  7.96e-01  0.850  19.1
                               ***Turning on AO-DIIS***
    3    -1193.8401564632367808    -2.50e-02  5.16e-04  3.05e-02  6.78e-01  0.850  19.0
    4    -1193.8540814212369696    -1.39e-02  4.66e-04  2.85e-02  5.76e-01  0.850  18.6
    5    -1193.8634917226988819    -9.41e-03  3.57e-04  2.16e-02  4.90e-01  0.850  18.4
    6    -1193.8721172538769224    -8.63e-03  2.60e-04  1.50e-02  4.17e-01  0.850  18.2
    7    -1193.8804033429535139    -8.29e-03  2.03e-04  1.14e-02  3.54e-01  0.850  18.2
    8    -1193.8874192081423189    -7.02e-03  1.79e-04  1.02e-02  3.01e-01  0.850  18.1
    9    -1193.8928620378023879    -5.44e-03  1.61e-04  9.25e-03  2.56e-01  0.850  17.9
   10    -1193.8971391109259912    -4.28e-03  1.38e-04  8.09e-03  2.18e-01  0.850  17.9
   11    -1193.9006534435616231    -3.51e-03  1.14e-04  6.63e-03  1.85e-01  0.850  17.6
   12    -1193.9036206399830462    -2.97e-03  9.38e-05  5.40e-03  1.57e-01  0.850  17.6
   13    -1193.9061161636395809    -2.50e-03  7.92e-05  4.56e-03  1.34e-01  0.850  17.3
   14    -1193.9081914409018736    -2.08e-03  6.81e-05  3.93e-03  1.14e-01  0.850  17.3
   15    -1193.9099155910125774    -1.72e-03  5.86e-05  3.38e-03  9.66e-02  0.850  17.1
   16    -1193.9113570726797207    -1.44e-03  4.97e-05  2.87e-03  8.21e-02  0.850  17.0
   17    -1193.9125695538493801    -1.21e-03  4.18e-05  2.41e-03  6.98e-02  0.850  16.9
   18    -1193.9135917705471002    -1.02e-03  3.53e-05  2.04e-03  5.94e-02  0.850  16.7
   19    -1193.9144536332537427    -8.62e-04  3.01e-05  1.74e-03  5.05e-02  0.850  16.6
   20    -1193.9151805591795892    -7.27e-04  2.57e-05  1.48e-03  4.29e-02  0.850  16.4
               *** Restarting incremental Fock matrix formation ***
                             ****Resetting DIIS****
   21    -1193.9157944454429980    -6.14e-04  2.00e-05  1.06e-03  3.65e-02  0.850  21.5
   22    -1193.9163185020181572    -5.24e-04  1.93e-05  1.11e-03  3.10e-02  0.850  16.3
   23    -1193.9167580173073020    -4.40e-04  1.81e-05  1.08e-03  2.64e-02  0.850  16.1
   24    -1193.9171275096757654    -3.69e-04  9.90e-05  5.95e-03  2.25e-02  0.000  15.9
                              *** Initializing SOSCF ***
---------------------------------------S-O-S-C-F--------------------------------------
Iteration    Energy (Eh)           Delta-E    RMSDP     MaxDP     MaxGrad    Time(sec)
--------------------------------------------------------------------------------------
   25    -1193.9192114209261035    -2.08e-03  1.52e-05  9.20e-04  5.43e-04    17.3
               *** Restarting incremental Fock matrix formation ***
   26    -1193.9192124647868241    -1.04e-06  9.09e-06  3.72e-04  1.37e-04    21.4
   27    -1193.9192111731722434     1.29e-06  6.66e-06  3.41e-04  2.29e-04    15.8
   28    -1193.9192132658420178    -2.09e-06  3.68e-06  2.22e-04  4.95e-05    15.5
   29    -1193.9192129915570604     2.74e-07  2.75e-06  1.54e-04  1.08e-04    14.9
   30    -1193.9192133218205072    -3.30e-07  3.92e-07  2.50e-05  4.47e-06    14.6
   31    -1193.9192133209639906     8.57e-10  1.78e-07  8.08e-06  8.59e-06    12.8
                 **** Energy Check signals convergence ****

               *****************************************************
               *                     SUCCESS                       *
               *           SCF CONVERGED AFTER  31 CYCLES          *
               *****************************************************

             **** ENERGY FILE WAS UPDATED (benzal_chloride_rks_def2tzvpp_efg_ent1.en.tmp) ****

----------------
TOTAL SCF ENERGY
----------------

Total Energy       :      -1193.91921332096399 Eh          -32488.19346 eV

Components:
Nuclear Repulsion  :        556.54937567803177 Eh           15144.47844 eV
Electronic Energy  :      -1750.46858899899576 Eh          -47632.67190 eV
One Electron Energy:      -2745.07732465224990 Eh          -74697.35154 eV
Two Electron Energy:        994.60873565325414 Eh           27064.67964 eV

Virial components:
Potential Energy   :      -2403.59069468324833 Eh          -65405.02793 eV
Kinetic Energy     :       1209.67148136228411 Eh           32916.83447 eV
Virial Ratio       :          1.98697806116452

DFT components:
N(Alpha)           :       41.006030097821 electrons
N(Beta)            :       41.006030097821 electrons
N(Total)           :       82.012060195643 electrons
E(X)               :      -94.283195225326 Eh       
E(C)               :       -2.935656736725 Eh       
E(XC)              :      -97.218851962051 Eh       

---------------
SCF CONVERGENCE
---------------

  Last Energy change         ...   -8.5652e-10  Tolerance :   1.0000e-09
  Last MAX-Density change    ...    8.0827e-06  Tolerance :   1.0000e-08
  Last RMS-Density change    ...    1.7788e-07  Tolerance :   1.0000e-09
  Last DIIS Error            ...    5.4284e-04  Tolerance :   1.0000e-08
  Last Orbital Gradient      ...    8.5936e-06  Tolerance :   2.0000e-06
  Last Orbital Rotation      ...    1.5801e-05  Tolerance :   2.0000e-06


----------------
ORBITAL ENERGIES
----------------

  NO   OCC          E(Eh)            E(eV) 
   0   2.0000    -101.330059     -2757.3311 
   1   2.0000    -101.330055     -2757.3310 
   2   2.0000     -10.117948      -275.3234 
   3   2.0000     -10.022451      -272.7248 
   4   2.0000     -10.011873      -272.4369 
   5   2.0000     -10.007216      -272.3102 
   6   2.0000     -10.007132      -272.3079 
   7   2.0000     -10.006733      -272.2970 
   8   2.0000     -10.006224      -272.2832 
   9   2.0000      -9.304678      -253.1932 
  10   2.0000      -9.304675      -253.1931 
  11   2.0000      -7.024585      -191.1487 
  12   2.0000      -7.024582      -191.1486 
  13   2.0000      -7.012974      -190.8327 
  14   2.0000      -7.012969      -190.8326 
  15   2.0000      -7.012537      -190.8208 
  16   2.0000      -7.012535      -190.8208 
  17   2.0000      -0.850423       -23.1412 
  18   2.0000      -0.807542       -21.9743 
  19   2.0000      -0.764993       -20.8165 
  20   2.0000      -0.717907       -19.5353 
  21   2.0000      -0.708270       -19.2730 
  22   2.0000      -0.622649       -16.9431 
  23   2.0000      -0.576827       -15.6963 
  24   2.0000      -0.549716       -14.9585 
  25   2.0000      -0.491679       -13.3793 
  26   2.0000      -0.452219       -12.3055 
  27   2.0000      -0.435594       -11.8531 
  28   2.0000      -0.413981       -11.2650 
  29   2.0000      -0.404192       -10.9986 
  30   2.0000      -0.399558       -10.8725 
  31   2.0000      -0.392304       -10.6751 
  32   2.0000      -0.347455        -9.4547 
  33   2.0000      -0.334556        -9.1037 
  34   2.0000      -0.322364        -8.7720 
  35   2.0000      -0.289776        -7.8852 
  36   2.0000      -0.288945        -7.8626 
  37   2.0000      -0.270060        -7.3487 
  38   2.0000      -0.269766        -7.3407 
  39   2.0000      -0.246208        -6.6997 
  40   2.0000      -0.238805        -6.4982 
  41   0.0000      -0.067485        -1.8364 
  42   0.0000      -0.048852        -1.3293 
  43   0.0000      -0.034324        -0.9340 
  44   0.0000       0.019927         0.5423 
  45   0.0000       0.026023         0.7081 
  46   0.0000       0.043844         1.1930 
  47   0.0000       0.066968         1.8223 
  48   0.0000       0.078520         2.1366 
  49   0.0000       0.095108         2.5880 
  50   0.0000       0.101799         2.7701 
  51   0.0000       0.108350         2.9483 
*Only the first 10 virtual orbitals were printed.

                    ********************************
                    * MULLIKEN POPULATION ANALYSIS *
                    ********************************

-----------------------
MULLIKEN ATOMIC CHARGES
-----------------------
   0 Cl:   -0.027171
   1 Cl:   -0.027156
   2 C :    0.274311
   3 C :   -0.252807
   4 C :   -0.155484
   5 C :   -0.279660
   6 C :   -0.056059
   7 C :   -0.068517
   8 C :   -0.141014
   9 H :    0.089232
  10 H :    0.116828
  11 H :    0.202024
  12 H :    0.118462
  13 H :    0.099327
  14 H :    0.107683
Sum of atomic charges:   -0.0000000

--------------------------------
MULLIKEN REDUCED ORBITAL CHARGES
--------------------------------
  0 Cls       :     5.937578  s :     5.937578
      pz      :     3.426764  p :    11.062793
      px      :     3.790456
      py      :     3.845573
      dz2     :     0.007477  d :     0.026800
      dxz     :     0.008336
      dyz     :     0.006291
      dx2y2   :     0.002480
      dxy     :     0.002216

  1 Cls       :     5.937577  s :     5.937577
      pz      :     3.427367  p :    11.062779
      px      :     3.790440
      py      :     3.844972
      dz2     :     0.007461  d :     0.026801
      dxz     :     0.008328
      dyz     :     0.006303
      dx2y2   :     0.002484
      dxy     :     0.002224

  2 C s       :     2.922002  s :     2.922002
      pz      :     0.949318  p :     2.655173
      px      :     0.811832
      py      :     0.894023
      dz2     :     0.009668  d :     0.138823
      dxz     :     0.017596
      dyz     :     0.024735
      dx2y2   :     0.055371
      dxy     :     0.031452
      f0      :     0.001692  f :     0.009691
      f+1     :     0.000807
      f-1     :     0.000379
      f+2     :     0.000861
      f-2     :     0.001180
      f+3     :     0.001644
      f-3     :     0.003128

  3 C s       :     3.324383  s :     3.324383
      pz      :     0.967721  p :     2.811603
      px      :     0.891557
      py      :     0.952326
      dz2     :     0.009318  d :     0.108766
      dxz     :     0.022712
      dyz     :     0.007203
      dx2y2   :     0.034635
      dxy     :     0.034898
      f0      :     0.001339  f :     0.008054
      f+1     :     0.000493
      f-1     :     0.000857
      f+2     :     0.000676
      f-2     :     0.000856
      f+3     :     0.001637
      f-3     :     0.002197

  4 C s       :     3.241246  s :     3.241246
      pz      :     0.953146  p :     2.820932
      px      :     0.896985
      py      :     0.970801
      dz2     :     0.005674  d :     0.085605
      dxz     :     0.016952
      dyz     :     0.010887
      dx2y2   :     0.016184
      dxy     :     0.035908
      f0      :     0.001510  f :     0.007701
      f+1     :     0.000537
      f-1     :     0.000751
      f+2     :     0.001092
      f-2     :     0.000319
      f+3     :     0.001424
      f-3     :     0.002068

  5 C s       :     3.176161  s :     3.176161
      pz      :     0.788515  p :     2.882142
      px      :     1.012567
      py      :     1.081060
      dz2     :     0.047446  d :     0.211545
      dxz     :     0.058576
      dyz     :     0.032434
      dx2y2   :     0.040316
      dxy     :     0.032773
      f0      :     0.001907  f :     0.009814
      f+1     :     0.001345
      f-1     :     0.001258
      f+2     :     0.001576
      f-2     :     0.001449
      f+3     :     0.000956
      f-3     :     0.001322

  6 C s       :     3.139518  s :     3.139518
      pz      :     0.962759  p :     2.812521
      px      :     0.926629
      py      :     0.923133
      dz2     :     0.005784  d :     0.096332
      dxz     :     0.016898
      dyz     :     0.010930
      dx2y2   :     0.016213
      dxy     :     0.046507
      f0      :     0.001544  f :     0.007688
      f+1     :     0.000467
      f-1     :     0.000706
      f+2     :     0.001163
      f-2     :     0.000283
      f+3     :     0.001640
      f-3     :     0.001885

  7 C s       :     3.159491  s :     3.159491
      pz      :     0.948571  p :     2.800642
      px      :     0.934309
      py      :     0.917762
      dz2     :     0.004824  d :     0.100312
      dxz     :     0.020107
      dyz     :     0.007402
      dx2y2   :     0.034226
      dxy     :     0.033753
      f0      :     0.001350  f :     0.008073
      f+1     :     0.000595
      f-1     :     0.000845
      f+2     :     0.000686
      f-2     :     0.000771
      f+3     :     0.001705
      f-3     :     0.002122

  8 C s       :     3.263364  s :     3.263364
      pz      :     0.956461  p :     2.769122
      px      :     0.896637
      py      :     0.916024
      dz2     :     0.006423  d :     0.100708
      dxz     :     0.006691
      dyz     :     0.021805
      dx2y2   :     0.046057
      dxy     :     0.019732
      f0      :     0.001485  f :     0.007821
      f+1     :     0.000763
      f-1     :     0.000408
      f+2     :     0.000393
      f-2     :     0.001126
      f+3     :     0.001302
      f-3     :     0.002344

  9 H s       :     0.892239  s :     0.892239
      pz      :     0.004876  p :     0.018529
      px      :     0.004623
      py      :     0.009030

 10 H s       :     0.864674  s :     0.864674
      pz      :     0.004470  p :     0.018497
      px      :     0.005893
      py      :     0.008134

 11 H s       :     0.779209  s :     0.779209
      pz      :     0.003845  p :     0.018767
      px      :     0.004545
      py      :     0.010377

 12 H s       :     0.863300  s :     0.863300
      pz      :     0.004672  p :     0.018238
      px      :     0.005574
      py      :     0.007992

 13 H s       :     0.881850  s :     0.881850
      pz      :     0.004840  p :     0.018823
      px      :     0.004728
      py      :     0.009255

 14 H s       :     0.873360  s :     0.873360
      pz      :     0.004986  p :     0.018957
      px      :     0.010512
      py      :     0.003459



                     *******************************
                     * LOEWDIN POPULATION ANALYSIS *
                     *******************************

----------------------
LOEWDIN ATOMIC CHARGES
----------------------
   0 Cl:    0.361221
   1 Cl:    0.361233
   2 C :   -0.212688
   3 C :   -0.099814
   4 C :   -0.099070
   5 C :   -0.764880
   6 C :   -0.128875
   7 C :   -0.122535
   8 C :   -0.125630
   9 H :    0.142358
  10 H :    0.146607
  11 H :    0.119971
  12 H :    0.141290
  13 H :    0.140280
  14 H :    0.140532

-------------------------------
LOEWDIN REDUCED ORBITAL CHARGES
-------------------------------
  0 Cls       :     5.622337  s :     5.622337
      pz      :     3.440271  p :    10.986177
      px      :     3.739196
      py      :     3.806711
      dz2     :     0.008426  d :     0.030265
      dxz     :     0.009396
      dyz     :     0.007336
      dx2y2   :     0.002587
      dxy     :     0.002520

  1 Cls       :     5.622331  s :     5.622331
      pz      :     3.440793  p :    10.986170
      px      :     3.739189
      py      :     3.806188
      dz2     :     0.008406  d :     0.030266
      dxz     :     0.009386
      dyz     :     0.007352
      dx2y2   :     0.002592
      dxy     :     0.002530

  2 C s       :     2.723849  s :     2.723849
      pz      :     0.873303  p :     2.929671
      px      :     0.994163
      py      :     1.062205
      dz2     :     0.036703  d :     0.507573
      dxz     :     0.056765
      dyz     :     0.077134
      dx2y2   :     0.183401
      dxy     :     0.153569
      f0      :     0.003695  f :     0.051595
      f+1     :     0.004079
      f-1     :     0.003625
      f+2     :     0.004620
      f-2     :     0.006634
      f+3     :     0.011326
      f-3     :     0.017615

  3 C s       :     2.761041  s :     2.761041
      pz      :     0.885971  p :     2.929175
      px      :     1.050777
      py      :     0.992427
      dz2     :     0.026531  d :     0.372122
      dxz     :     0.068899
      dyz     :     0.019458
      dx2y2   :     0.130896
      dxy     :     0.126337
      f0      :     0.002754  f :     0.037476
      f+1     :     0.003392
      f-1     :     0.002792
      f+2     :     0.003731
      f-2     :     0.004668
      f+3     :     0.008302
      f-3     :     0.011838

  4 C s       :     2.761579  s :     2.761579
      pz      :     0.876762  p :     2.935079
      px      :     1.045559
      py      :     1.012758
      dz2     :     0.025954  d :     0.364874
      dxz     :     0.048741
      dyz     :     0.036363
      dx2y2   :     0.099572
      dxy     :     0.154245
      f0      :     0.002812  f :     0.037538
      f+1     :     0.003103
      f-1     :     0.002985
      f+2     :     0.006830
      f-2     :     0.001550
      f+3     :     0.008050
      f-3     :     0.012208

  5 C s       :     2.941085  s :     2.941085
      pz      :     0.980032  p :     3.143078
      px      :     1.079327
      py      :     1.083719
      dz2     :     0.151523  d :     0.627640
      dxz     :     0.175870
      dyz     :     0.102500
      dx2y2   :     0.113652
      dxy     :     0.084095
      f0      :     0.009054  f :     0.053077
      f+1     :     0.009594
      f-1     :     0.007530
      f+2     :     0.007357
      f-2     :     0.009189
      f+3     :     0.004207
      f-3     :     0.006146

  6 C s       :     2.767435  s :     2.767435
      pz      :     0.888056  p :     2.955201
      px      :     1.037746
      py      :     1.029398
      dz2     :     0.025292  d :     0.368796
      dxz     :     0.049539
      dyz     :     0.036194
      dx2y2   :     0.101692
      dxy     :     0.156079
      f0      :     0.002762  f :     0.037443
      f+1     :     0.003111
      f-1     :     0.003025
      f+2     :     0.006709
      f-2     :     0.001435
      f+3     :     0.008151
      f-3     :     0.012251

  7 C s       :     2.766881  s :     2.766881
      pz      :     0.880601  p :     2.947273
      px      :     1.063782
      py      :     1.002890
      dz2     :     0.025339  d :     0.370738
      dxz     :     0.065860
      dyz     :     0.019592
      dx2y2   :     0.133480
      dxy     :     0.126467
      f0      :     0.002758  f :     0.037643
      f+1     :     0.003439
      f-1     :     0.002774
      f+2     :     0.003740
      f-2     :     0.004372
      f+3     :     0.008286
      f-3     :     0.012273

  8 C s       :     2.769430  s :     2.769430
      pz      :     0.877978  p :     2.947727
      px      :     0.996322
      py      :     1.073427
      dz2     :     0.025596  d :     0.370867
      dxz     :     0.013932
      dyz     :     0.071909
      dx2y2   :     0.154079
      dxy     :     0.105352
      f0      :     0.002762  f :     0.037607
      f+1     :     0.002697
      f-1     :     0.003466
      f+2     :     0.001841
      f-2     :     0.006353
      f+3     :     0.008177
      f-3     :     0.012311

  9 H s       :     0.802432  s :     0.802432
      pz      :     0.013328  p :     0.055210
      px      :     0.012986
      py      :     0.028896

 10 H s       :     0.797732  s :     0.797732
      pz      :     0.012699  p :     0.055662
      px      :     0.019443
      py      :     0.023520

 11 H s       :     0.818196  s :     0.818196
      pz      :     0.010416  p :     0.061832
      px      :     0.011569
      py      :     0.039847

 12 H s       :     0.803853  s :     0.803853
      pz      :     0.012967  p :     0.054857
      px      :     0.018714
      py      :     0.023175

 13 H s       :     0.804980  s :     0.804980
      pz      :     0.012837  p :     0.054740
      px      :     0.012974
      py      :     0.028929

 14 H s       :     0.804705  s :     0.804705
      pz      :     0.012810  p :     0.054763
      px      :     0.030830
      py      :     0.011123



                      *****************************
                      * MAYER POPULATION ANALYSIS *
                      *****************************

  NA   - Mulliken gross atomic population
  ZA   - Total nuclear charge
  QA   - Mulliken gross atomic charge
  VA   - Mayer's total valence
  BVA  - Mayer's bonded valence
  FA   - Mayer's free valence

  ATOM       NA         ZA         QA         VA         BVA        FA
  0 Cl    17.0272    17.0000    -0.0272     1.1570     1.1570    -0.0000
  1 Cl    17.0272    17.0000    -0.0272     1.1570     1.1570    -0.0000
  2 C      5.7257     6.0000     0.2743     3.6909     3.6909    -0.0000
  3 C      6.2528     6.0000    -0.2528     3.9987     3.9987    -0.0000
  4 C      6.1555     6.0000    -0.1555     3.9393     3.9393     0.0000
  5 C      6.2797     6.0000    -0.2797     4.2028     4.2028    -0.0000
  6 C      6.0561     6.0000    -0.0561     3.8085     3.8085    -0.0000
  7 C      6.0685     6.0000    -0.0685     3.7167     3.7167    -0.0000
  8 C      6.1410     6.0000    -0.1410     3.8266     3.8266    -0.0000
  9 H      0.9108     1.0000     0.0892     0.9852     0.9852    -0.0000
 10 H      0.8832     1.0000     0.1168     0.9987     0.9987     0.0000
 11 H      0.7980     1.0000     0.2020     0.9547     0.9547    -0.0000
 12 H      0.8815     1.0000     0.1185     0.9590     0.9590    -0.0000
 13 H      0.9007     1.0000     0.0993     0.9684     0.9684    -0.0000
 14 H      0.8923     1.0000     0.1077     0.9625     0.9625    -0.0000

  Mayer bond orders larger than 0.100000
B(  0-Cl,  5-C ) :   1.0933 B(  1-Cl,  5-C ) :   1.0933 B(  2-C ,  3-C ) :   1.3505 
B(  2-C ,  4-C ) :   1.3086 B(  2-C ,  5-C ) :   1.0583 B(  3-C ,  4-C ) :   0.1114 
B(  3-C ,  6-C ) :   1.3467 B(  3-C ,  9-H ) :   1.0095 B(  4-C ,  7-C ) :   1.3701 
B(  4-C , 10-H ) :   0.9840 B(  5-C , 11-H ) :   0.9501 B(  6-C ,  8-C ) :   1.3586 
B(  6-C , 12-H ) :   0.9969 B(  7-C ,  8-C ) :   1.2701 B(  7-C , 13-H ) :   1.0044 
B(  8-C , 14-H ) :   1.0140 

-------
TIMINGS
-------

Total SCF time: 0 days 0 hours 8 min 59 sec 

Total time                  ....     539.275 sec
Sum of individual times     ....     539.242 sec  (100.0%)

SCF preparation             ....       0.038 sec  (  0.0%)
Fock matrix formation       ....     538.407 sec  ( 99.8%)
  Startup                   ....       0.015 sec  (  0.0% of F)
  Coulomb formation         ....     483.823 sec  ( 89.9% of F)
  XC integration            ....      54.441 sec  ( 10.1% of F)
    XC Preparation          ....       0.000 sec  (  0.0% of XC)
    Basis function eval.    ....       6.529 sec  ( 12.0% of XC)
    Density eval.           ....      11.144 sec  ( 20.5% of XC)
    XC-Functional eval.     ....       1.125 sec  (  2.1% of XC)
    XC-Potential eval.      ....      35.027 sec  ( 64.3% of XC)
Diagonalization             ....       0.000 sec  (  0.0%)
Density matrix formation    ....       0.086 sec  (  0.0%)
Total Energy calculation    ....       0.020 sec  (  0.0%)
Population analysis         ....       0.010 sec  (  0.0%)
Orbital Transformation      ....       0.032 sec  (  0.0%)
Orbital Orthonormalization  ....       0.000 sec  (  0.0%)
DIIS solution               ....       0.580 sec  (  0.1%)
SOSCF solution              ....       0.069 sec  (  0.0%)
Finished LeanSCF after 539.3 sec

Maximum memory used throughout the entire LEANSCF-calculation: 42.9 MB

------------------------------------------------------------------------------
                         ORCA PROPERTY INTEGRAL CALCULATIONS
------------------------------------------------------------------------------

GBWName                                   ... benzal_chloride_rks_def2tzvpp_efg_ent1.gbw
Number of atoms                           ...     15
Number of basis functions                 ...    462
Max core memory                           ...   1024 MB

Dipole integrals                          ... YES(DKH)
Quadrupole integrals                      ...  NO
Linear momentum integrals                 ...  NO
Angular momentum integrals                ...  NO
Higher moments length integrals           ...  NO
Higher moments velocity integrals         ...  NO
Kinetic energy integrals                  ...  NO
GIAO right hand sides                     ...  NO
GIAO dipole derivative integrals          ...  NO
SOC integrals                             ...  NO
EPR diamagnetic integrals (GIAO)          ...  NO
EPR gauge integrals                       ...  NO
Field gradient integrals                  ... YES(DKH) (  15 nuclei)
Spin-dipole/Fermi contact integrals       ...  NO (   0 nuclei)
Contact density integrals                 ...  NO (   0 nuclei)
Nucleus-orbit integrals                   ...  NO (   0 nuclei)
Geometric perturbations                   ...  NO (  15 nuclei)

DKH transformation order                  ... First
Note: picture-change corrections are only included
      for the integrals annotated with "YES(DKH)"!

Choice of electric origin   ... Center of mass
Position of electric origin ... (  1.3237, -0.0758, -0.0000) 
Choice of magnetic origin   ... GIAO
Position of magnetic origin ... (  0.0000,  0.0000,  0.0000) 

Calculating integrals                     ... Electric Dipole (Length)     done (  0.0 sec)
Calculating integrals                     ... SD/FC/EFG integrals          done (  1.4 sec)

Property integrals calculated in   1.4 sec

Maximum memory used throughout the entire PROPINT-calculation: 80.8 MB

-------------------------   --------------------
FINAL SINGLE POINT ENERGY     -1193.919213320964
-------------------------   --------------------


------------------------------------------------------------------------------
                              ORCA PROPERTY CALCULATIONS
------------------------------------------------------------------------------

GBWName                                 ... benzal_chloride_rks_def2tzvpp_efg_ent1.gbw
Number of atoms                         ...     15
Number of basis functions               ...    462
Max core memory                         ...   1024 MB

Electric properties:
Dipole moment                           ... YES(DKH)
Quadrupole moment                       ...  NO
Static polarizability (Dipole/Dipole)   ...  NO
Static polarizability (Dipole/Quad.)    ...  NO
Static polarizability (Quad./Quad.)     ...  NO
Static polarizability (Velocity)        ...  NO

Atomic electric properties:
Dipole moment                           ...  NO
Quadrupole moment                       ...  NO
Static polarizability                   ...  NO

Choice of electric origin               ... Center of mass
Position of electric origin             ...     1.323741    -0.075804    -0.000014

General magnetic properties:
Magnetizability                         ...  NO

EPR properties:
g-Tensor (aka g-matrix)                 ...  NO
Zero-Field splitting spin-orbit         ...  NO
Zero-field splitting spin-spin          ...  NO
Hyperfine couplings                     ...  NO (   0 nuclei)
Quadrupole couplings                    ... YES(DKH) (  15 nuclei)
Contact density                         ...  NO (   0 nuclei)

NMR properties:
Chemical shifts                         ...  NO (   0 nuclei)
Spin-rotation constants                 ...  NO (   0 nuclei)
Spin-spin couplings                     ...  NO (   0 nuclei,    0 pairs)

Choice of magnetic origin               ... GIAO
Position of magnetic origin             ...     0.000000     0.000000     0.000000

Properties with geometric perturbations:
SCF Hessian                             ...  NO
IR spectrum                             ...  NO
VCD spectrum                            ...  NO
X-ray spectroscopy properties:
SCF XES/XAS/RIXS spectra                ...  NO

DKH transformation order                ... First
Note: picture-change corrections are only included
      for the properties annotated with "YES(DKH)"!


-------------
DIPOLE MOMENT
-------------

Method             : SCF
Type of density    : Electron Density
Multiplicity       :   1
Irrep              :   0
Energy             : -1193.9192133209639906 Eh
Relativity type    : 
Basis              : AO
                                X                 Y                 Z
Electronic contribution:     13.746776855      -1.177982001      -0.000672419
Nuclear contribution   :    -14.650064953       1.511615700       0.000934350
                        -----------------------------------------
Total Dipole Moment    :     -0.903288099       0.333633699       0.000261931
                        -----------------------------------------
Magnitude (a.u.)       :      0.962933489
Magnitude (Debye)      :      2.447582416



--------------------
Rotational spectrum 
--------------------
 
Rotational constants in cm-1:             0.067714             0.024191             0.022283 
Rotational constants in MHz :          2030.014517           725.234984           668.020482 

Dipole components along the rotational axes: 
x,y,z [a.u.] :    -0.909685     0.000009     0.315776 
x,y,z [Debye]:    -2.312235     0.000023     0.802639 

 

Dipole moment calculation done in   0.0 sec 

-----------------------------------------
ELECTRIC AND MAGNETIC HYPERFINE STRUCTURE (15 nuclei)
-----------------------------------------

Number of nuclei to compute A(iso)       :     0
Number of nuclei to compute A(dip)       :     0
Number of nuclei to compute A(orb)       :     0
Number of nuclei to compute A(dia)       :     0
Number of nuclei to compute EFG          :    15
Number of nuclei to compute Rho(0)       :     0
Relativistic treatment                   :  DKH
DKH transformation order                 :  First

Method             : SCF
Type of density    : Electron Density
Multiplicity       :   1
Irrep              :   0
Energy             : -1193.9192133209639906 Eh
Relativity type    : 
Basis              : AO
 -----------------------------------------------------------
 Nucleus   9H : A  : Isotope=    0 I=  0.0 P=  0.0000 MHz/au**3 
                Q  : Isotope=    0 I=  0.0 Q=  0.0000 barn      
                HFC: iso  = NO dip= NO orb= NO gauge= NO    
                EFG: fgrad=YES rho= NO                      
 -----------------------------------------------------------

 Raw EFG matrix (all values in a.u.**-3):
 ------------------------------------------------------
             -0.0843298       0.1470263       0.0000938
              0.1470263       0.2466813       0.0002631
              0.0000938       0.0002631      -0.1623515

 V(Tot)      -0.1402036      -0.1623517       0.3025553
 Orientation: 
     X        0.9347755      -0.0000324       0.3552389
     Y       -0.3552388       0.0006548       0.9347754
     Z       -0.0002629      -0.9999998       0.0006006

 Note: Tensor is right-handed

 Contributions:
 V(El )       0.4040353       0.8980587  -1.3020940
 V(Nuc)      -0.5442389      -1.0604104   1.6046493
 -----------------------------------------------------------
 Nucleus  10H : A  : Isotope=    0 I=  0.0 P=  0.0000 MHz/au**3 
                Q  : Isotope=    0 I=  0.0 Q=  0.0000 barn      
                HFC: iso  = NO dip= NO orb= NO gauge= NO    
                EFG: fgrad=YES rho= NO                      
 -----------------------------------------------------------

 Raw EFG matrix (all values in a.u.**-3):
 ------------------------------------------------------
              0.0351002      -0.2167093      -0.0001294
             -0.2167093       0.1257906       0.0001739
             -0.0001294       0.0001739      -0.1608908

 V(Tot)      -0.1409572      -0.1608909       0.3018481
 Orientation: 
     X        0.7761472       0.0000635      -0.6305518
     Y        0.6305516       0.0006546       0.7761471
     Z        0.0004620      -0.9999998       0.0004680

 Note: Tensor is right-handed

 Contributions:
 V(El )       0.3136149       0.8977596  -1.2113745
 V(Nuc)      -0.4545721      -1.0586505   1.5132226
 -----------------------------------------------------------
 Nucleus  11H : A  : Isotope=    0 I=  0.0 P=  0.0000 MHz/au**3 
                Q  : Isotope=    0 I=  0.0 Q=  0.0000 barn      
                HFC: iso  = NO dip= NO orb= NO gauge= NO    
                EFG: fgrad=YES rho= NO                      
 -----------------------------------------------------------

 Raw EFG matrix (all values in a.u.**-3):
 ------------------------------------------------------
             -0.1305005       0.0802636       0.0000588
              0.0802636       0.2772897       0.0003053
              0.0000588       0.0003053      -0.1467892

 V(Tot)      -0.1457297      -0.1467894       0.2925191
 Orientation: 
     X        0.9824708       0.0009618       0.1864138
     Y       -0.1864144       0.0005378       0.9824711
     Z        0.0008446      -0.9999994       0.0007077

 Note: Tensor is right-handed

 Contributions:
 V(El )       0.5964855       0.6928021  -1.2892876
 V(Nuc)      -0.7422152      -0.8395916   1.5818068
 -----------------------------------------------------------
 Nucleus  12H : A  : Isotope=    0 I=  0.0 P=  0.0000 MHz/au**3 
                Q  : Isotope=    0 I=  0.0 Q=  0.0000 barn      
                HFC: iso  = NO dip= NO orb= NO gauge= NO    
                EFG: fgrad=YES rho= NO                      
 -----------------------------------------------------------

 Raw EFG matrix (all values in a.u.**-3):
 ------------------------------------------------------
              0.0345642      -0.2190522      -0.0001289
             -0.2190522       0.1273630       0.0001732
             -0.0001289       0.0001732      -0.1619273

 V(Tot)      -0.1429487      -0.1619274       0.3048761
 Orientation: 
     X        0.7769239       0.0000719      -0.6295946
     Y        0.6295944       0.0006531       0.7769237
     Z        0.0004671      -0.9999998       0.0004621

 Note: Tensor is right-handed

 Contributions:
 V(El )       0.5981845       0.8345950  -1.4327794
 V(Nuc)      -0.7411332      -0.9965223   1.7376555
 -----------------------------------------------------------
 Nucleus  13H : A  : Isotope=    0 I=  0.0 P=  0.0000 MHz/au**3 
                Q  : Isotope=    0 I=  0.0 Q=  0.0000 barn      
                HFC: iso  = NO dip= NO orb= NO gauge= NO    
                EFG: fgrad=YES rho= NO                      
 -----------------------------------------------------------

 Raw EFG matrix (all values in a.u.**-3):
 ------------------------------------------------------
             -0.0877508       0.1470732       0.0000940
              0.1470732       0.2488572       0.0002642
              0.0000940       0.0002642      -0.1611063

 V(Tot)      -0.1429569      -0.1611065       0.3040634
 Orientation: 
     X        0.9362169      -0.0000378       0.3514227
     Y       -0.3514226       0.0006579       0.9362167
     Z       -0.0002666      -0.9999998       0.0006027

 Note: Tensor is right-handed

 Contributions:
 V(El )       0.5794607       0.8410697  -1.4205304
 V(Nuc)      -0.7224176      -1.0021762   1.7245938
 -----------------------------------------------------------
 Nucleus  14H : A  : Isotope=    0 I=  0.0 P=  0.0000 MHz/au**3 
                Q  : Isotope=    0 I=  0.0 Q=  0.0000 barn      
                HFC: iso  = NO dip= NO orb= NO gauge= NO    
                EFG: fgrad=YES rho= NO                      
 -----------------------------------------------------------

 Raw EFG matrix (all values in a.u.**-3):
 ------------------------------------------------------
              0.2910377       0.0729947       0.0000652
              0.0729947      -0.1306487       0.0000224
              0.0000652       0.0000224      -0.1603891

 V(Tot)      -0.1429267      -0.1603891       0.3033158
 Orientation: 
     X       -0.1658742      -0.0000377       0.9861469
     Y        0.9861467      -0.0006601       0.1658741
     Z        0.0006447       0.9999998       0.0001466

 Note: Tensor is right-handed

 Contributions:
 V(El )       0.6149355       0.8277357  -1.4426713
 V(Nuc)      -0.7578622      -0.9881248   1.7459870
 -----------------------------------------------------------
 Nucleus   2C : A  : Isotope=    0 I=  0.0 P=  0.0000 MHz/au**3 
                Q  : Isotope=    0 I=  0.0 Q=  0.0000 barn      
                HFC: iso  = NO dip= NO orb= NO gauge= NO    
                EFG: fgrad=YES rho= NO                      
 -----------------------------------------------------------

 Raw EFG matrix (all values in a.u.**-3):
 ------------------------------------------------------
              0.0027618       0.0340928       0.0000078
              0.0340928      -0.2186112      -0.0002696
              0.0000078      -0.0002696       0.2158494

 V(Tot)       0.0078933       0.2158496      -0.2237429
 Orientation: 
     X       -0.9888612      -0.0000636      -0.1488404
     Y       -0.1488403      -0.0006255       0.9888610
     Z       -0.0001560       0.9999998       0.0006090

 Note: Tensor is right-handed

 Contributions:
 V(El )      -0.8332475       1.3918242  -0.5585767
 V(Nuc)       0.8411408      -1.1759746   0.3348338
 -----------------------------------------------------------
 Nucleus   3C : A  : Isotope=    0 I=  0.0 P=  0.0000 MHz/au**3 
                Q  : Isotope=    0 I=  0.0 Q=  0.0000 barn      
                HFC: iso  = NO dip= NO orb= NO gauge= NO    
                EFG: fgrad=YES rho= NO                      
 -----------------------------------------------------------

 Raw EFG matrix (all values in a.u.**-3):
 ------------------------------------------------------
             -0.1813081       0.0080261      -0.0000114
              0.0080261      -0.1119304      -0.0002559
             -0.0000114      -0.0002559       0.2932385

 V(Tot)      -0.1110142      -0.1822245       0.2932387
 Orientation: 
     X        0.1134421       0.9935446       0.0000347
     Y        0.9935444      -0.1134421       0.0006323
     Z        0.0006321      -0.0000372      -0.9999998

 Note: Tensor is right-handed

 Contributions:
 V(El )      -0.3037062      -1.0762201   1.3799263
 V(Nuc)       0.1926920       0.8939956  -1.0866876
 -----------------------------------------------------------
 Nucleus   4C : A  : Isotope=    0 I=  0.0 P=  0.0000 MHz/au**3 
                Q  : Isotope=    0 I=  0.0 Q=  0.0000 barn      
                HFC: iso  = NO dip= NO orb= NO gauge= NO    
                EFG: fgrad=YES rho= NO                      
 -----------------------------------------------------------

 Raw EFG matrix (all values in a.u.**-3):
 ------------------------------------------------------
             -0.1799787      -0.0125132      -0.0000204
             -0.0125132      -0.1364282      -0.0002811
             -0.0000204      -0.0002811       0.3164069

 V(Tot)      -0.1330890      -0.1833181       0.3164071
 Orientation: 
     X       -0.2578415       0.9661872       0.0000254
     Y        0.9661871       0.2578414       0.0006201
     Z        0.0005926       0.0001844      -0.9999998

 Note: Tensor is right-handed

 Contributions:
 V(El )      -0.3207746      -1.0822263   1.4030009
 V(Nuc)       0.1876856       0.8989082  -1.0865938
 -----------------------------------------------------------
 Nucleus   5C : A  : Isotope=    0 I=  0.0 P=  0.0000 MHz/au**3 
                Q  : Isotope=    0 I=  0.0 Q=  0.0000 barn      
                HFC: iso  = NO dip= NO orb= NO gauge= NO    
                EFG: fgrad=YES rho= NO                      
 -----------------------------------------------------------

 Raw EFG matrix (all values in a.u.**-3):
 ------------------------------------------------------
             -0.1385703      -0.2490280      -0.0001737
             -0.2490280      -0.2610148      -0.0004775
             -0.0001737      -0.0004775       0.3995852

 V(Tot)       0.0566506       0.3995855      -0.4562361
 Orientation: 
     X        0.7869996       0.0000142      -0.6169535
     Y       -0.6169533      -0.0007282      -0.7869994
     Z       -0.0004605       0.9999997      -0.0005644

 Note: Tensor is right-handed

 Contributions:
 V(El )      -0.0515746       0.0976017  -0.0460271
 V(Nuc)       0.1082252       0.3019838  -0.4102090
 -----------------------------------------------------------
 Nucleus   6C : A  : Isotope=    0 I=  0.0 P=  0.0000 MHz/au**3 
                Q  : Isotope=    0 I=  0.0 Q=  0.0000 barn      
                HFC: iso  = NO dip= NO orb= NO gauge= NO    
                EFG: fgrad=YES rho= NO                      
 -----------------------------------------------------------

 Raw EFG matrix (all values in a.u.**-3):
 ------------------------------------------------------
             -0.1504562      -0.0315201      -0.0000321
             -0.0315201      -0.1590907      -0.0002947
             -0.0000321      -0.0002947       0.3095470

 V(Tot)      -0.1229592      -0.1865880       0.3095472
 Orientation: 
     X       -0.7535595       0.6573797       0.0000268
     Y        0.6573796       0.7535593       0.0006270
     Z        0.0003920       0.0004901      -0.9999998

 Note: Tensor is right-handed

 Contributions:
 V(El )      -0.4893916      -0.8532157   1.3426072
 V(Nuc)       0.3664324       0.6666277  -1.0330601
 -----------------------------------------------------------
 Nucleus   7C : A  : Isotope=    0 I=  0.0 P=  0.0000 MHz/au**3 
                Q  : Isotope=    0 I=  0.0 Q=  0.0000 barn      
                HFC: iso  = NO dip= NO orb= NO gauge= NO    
                EFG: fgrad=YES rho= NO                      
 -----------------------------------------------------------

 Raw EFG matrix (all values in a.u.**-3):
 ------------------------------------------------------
             -0.1802713       0.0190470      -0.0000042
              0.0190470      -0.1369305      -0.0002857
             -0.0000042      -0.0002857       0.3172019

 V(Tot)      -0.1297498      -0.1874522       0.3172020
 Orientation: 
     X        0.3527707       0.9357098       0.0000325
     Y        0.9357096      -0.3527706       0.0006304
     Z        0.0006013      -0.0001919      -0.9999998

 Note: Tensor is right-handed

 Contributions:
 V(El )      -0.4245882      -0.9314263   1.3560145
 V(Nuc)       0.2948384       0.7439741  -1.0388125
 -----------------------------------------------------------
 Nucleus   8C : A  : Isotope=    0 I=  0.0 P=  0.0000 MHz/au**3 
                Q  : Isotope=    0 I=  0.0 Q=  0.0000 barn      
                HFC: iso  = NO dip= NO orb= NO gauge= NO    
                EFG: fgrad=YES rho= NO                      
 -----------------------------------------------------------

 Raw EFG matrix (all values in a.u.**-3):
 ------------------------------------------------------
             -0.1295436       0.0063522      -0.0000219
              0.0063522      -0.1960711      -0.0003237
             -0.0000219      -0.0003237       0.3256147

 V(Tot)      -0.1289425      -0.1966724       0.3256149
 Orientation: 
     X        0.9955527      -0.0942058      -0.0000567
     Y        0.0942057       0.9955526      -0.0006211
     Z        0.0001150       0.0006130       0.9999998

 Note: Tensor is right-handed

 Contributions:
 V(El )      -0.5048527      -0.8433455   1.3481982
 V(Nuc)       0.3759102       0.6466731  -1.0225833
 -----------------------------------------------------------
 Nucleus   0Cl: A  : Isotope=    0 I=  0.0 P=  0.0000 MHz/au**3 
                Q  : Isotope=    0 I=  0.0 Q=  0.0000 barn      
                HFC: iso  = NO dip= NO orb= NO gauge= NO    
                EFG: fgrad=YES rho= NO                      
 -----------------------------------------------------------

 Raw EFG matrix (all values in a.u.**-3):
 ------------------------------------------------------
             -0.8231340      -0.9867321      -2.1798057
             -0.9867321      -1.2636775       1.6388787
             -2.1798057       1.6388787       2.0868116

 V(Tot)      -1.8841327      -2.0684579       3.9525906
 Orientation: 
     X       -0.4543885       0.7700801       0.4477808
     Y        0.7074083       0.6174400      -0.3440078
     Z       -0.5413914       0.1604507      -0.8253187

 Note: Tensor is right-handed

 Contributions:
 V(El )      -1.6202303      -1.8268857   3.4471159
 V(Nuc)      -0.2639024      -0.2415723   0.5054747
 -----------------------------------------------------------
 Nucleus   1Cl: A  : Isotope=    0 I=  0.0 P=  0.0000 MHz/au**3 
                Q  : Isotope=    0 I=  0.0 Q=  0.0000 barn      
                HFC: iso  = NO dip= NO orb= NO gauge= NO    
                EFG: fgrad=YES rho= NO                      
 -----------------------------------------------------------

 Raw EFG matrix (all values in a.u.**-3):
 ------------------------------------------------------
             -0.8231915      -0.9899681       2.1783056
             -0.9899681      -1.2588640      -1.6436744
              2.1783056      -1.6436744       2.0820556

 V(Tot)      -1.8839919      -2.0685385       3.9525304
 Orientation: 
     X       -0.4543773       0.7700894      -0.4477762
     Y        0.7066309       0.6176598       0.3452088
     Z        0.5424150      -0.1595575      -0.8248196

 Note: Tensor is right-handed

 Contributions:
 V(El )      -1.6200787      -1.8269760   3.4470547
 V(Nuc)      -0.2639132      -0.2415625   0.5054757

Hyperfine and quadrupole coupling calculation done in   0.0 sec 

Maximum memory used throughout the entire PROP-calculation: 67.6 MB

--------------------------------
SUGGESTED CITATIONS FOR THIS RUN
--------------------------------

Below you find a list of papers that are relevant to this ORCA run
We neither can nor want to force you to cite these papers, but we appreciate if you do
You receive ORCA, which is the product of decades of hard work by many enthusiastic individuals, for free
The only thing we kindly ask in return is that you cite our papers,
We deeply appreciate it, if you show your appreciation for ORCA by not just citing the generic ORCA reference.

Please note that relegating all ORCA citations to the supporting information does *not* help us.
SI sections are not indexed - citations you put there will not count into any citation statistics
But we need these citations in order to attract the funding resources that allow us to do what we are doing

Therefore, if you are a happy ORCA user, please consider citing a few of the papers listed below in the main body of your paper

In addition to the list printed below, the program has created the file benzal_chloride_rks_def2tzvpp_efg_ent1.bibtex that contains the list in bibtex format
You can import this file easily into all common literature databanks and citation aid programs


List of essential papers. We consider these as the minimum necessary citations

  1. Neese,F.
     Software update: the ORCA program system, version 5.0
     WIRES Comput. Molec. Sci., 2022 12(1)e1606
     doi.org/10.1002/wcms.1606

List of papers to cite with high priority. The work reported in these papers was absolutely
necessary for this run to complete.
Our perspective: the developers of density functionals and basis sets usually get cited in chemistry papers
Good! But without the algorithms to do something with them, the functionals or basis sets would not do anything.
Hence, in our opinion, the algorithm design and method developments papers are equally worthy of getting cited

  1. Neese,F.; Wolf,A.; Fleig,T.; Reiher,M.; Hess,B.A.
     Calculation of electric-field gradients based on higher-order generalized Douglas-Kroll transformations
     J. Chem. Phys., 2005 122(20)Art. No. 204107
     doi.org/10.1063/1.1904589
  2. Sandhoefer,B.; Neese,F.
     One-electron contributions to the g-tensor for second-order Douglas-Kroll-Hess theory
     J. Chem. Phys., 2012 137 
     doi.org/10.1063/1.4747454
  3. Neese,F.
     The SHARK Integral Generation and Digestion System
     J. Comp. Chem., 2022  1-16
     doi.org/10.1002/jcc.26942

List of suggested additional citations. These are papers that are important in the 'surrounding' of 
of this run, or papers that preceded the highly important papers. If you like your results we are grateful for a citation.

  1. Neese,F.
     The ORCA program system
     WIRES Comput. Molec. Sci., 2012 2(1)73-78
     doi.org/10.1002/wcms.81
  2. Neese,F.
     Software update: the ORCA program system, version 4.0
     WIRES Comput. Molec. Sci., 2018 8(1)1-6
     doi.org/10.1002/wcms.1327
  3. Neese,F.; Wennmohs,F.; Becker,U.; Riplinger,C.
     The ORCA quantum chemistry program package
     J. Chem. Phys., 2020 152 Art. No. L224108
     doi.org/10.1063/5.0004608

List of optional additional citations

  1. Neese,F.
     Approximate second-order SCF convergence for spin unrestricted wavefunctions
     Chem. Phys. Lett., 2000 325(1-3)93-98
     doi.org/10.1016/s0009-2614(00)00662-x

Timings for individual modules:

Sum of individual times          ...      547.097 sec (=   9.118 min)
Startup calculation              ...        1.610 sec (=   0.027 min)   0.3 %
Relativistic integrals           ...        0.831 sec (=   0.014 min)   0.2 %
SCF iterations                   ...      540.524 sec (=   9.009 min)  98.8 %
Property integrals               ...        2.703 sec (=   0.045 min)   0.5 %
Property calculations            ...        1.429 sec (=   0.024 min)   0.3 %
                             ****ORCA TERMINATED NORMALLY****
TOTAL RUN TIME: 0 days 0 hours 9 minutes 7 seconds 201 msec
