
                                 *****************
                                 * O   R   C   A *
                                 *****************

                                            #,                                       
                                            ###                                      
                                            ####                                     
                                            #####                                    
                                            ######                                   
                                           ########,                                 
                                     ,,################,,,,,                         
                               ,,#################################,,                 
                          ,,##########################################,,             
                       ,#########################################, ''#####,          
                    ,#############################################,,   '####,        
                  ,##################################################,,,,####,       
                ,###########''''           ''''###############################       
              ,#####''   ,,,,##########,,,,          '''####'''          '####       
            ,##' ,,,,###########################,,,                        '##       
           ' ,,###''''                  '''############,,,                           
         ,,##''                                '''############,,,,        ,,,,,,###''
      ,#''                                            '''#######################'''  
     '                                                          ''''####''''         
             ,#######,   #######,   ,#######,      ##                                
            ,#'     '#,  ##    ##  ,#'     '#,    #''#        ,####,   ,####,        
            ##       ##  ##   ,#'  ##            #'  '#       #'       #'  '#        
            ##       ##  #######   ##           ,######,      #####,   #    #        
            '#,     ,#'  ##    ##  '#,     ,#' ,#      #,     #,   #   #,  ,#        
             '#######'   ##     ##  '#######'  #'      '#     '####' # '####'        



                #########################################################
                #                        -***-                          #
                #          Department of theory and spectroscopy        #
                #                                                       #
                #                      Frank Neese                      #
                #                                                       #
                #     Directorship, Architecture, Infrastructure        #
                #                    SHARK, DRIVERS                     #
                #        Core code/Algorithms in most modules           #
                #                                                       #
                #        Max Planck Institute fuer Kohlenforschung      #
                #                Kaiser Wilhelm Platz 1                 #
                #                 D-45470 Muelheim/Ruhr                 #
                #                      Germany                          #
                #                                                       #
                #                  All rights reserved                  #
                #                        -***-                          #
                #########################################################


                         Program Version 6.0.1  -  RELEASE   -


 With contributions from (in alphabetic order):
[Max-Planck-Institut fuer Kohlenforschung]                               
  Daniel Aravena         : Magnetic Suceptibility                        
  Michael Atanasov       : Ab Initio Ligand Field Theory (pilot matlab implementation)
  Alexander A. Auer      : GIAO ZORA, VPT2 properties, NMR spectrum      
  Ute Becker             : All parallelization in ORCA, NUMFREQ, NUMCALC 
  Giovanni Bistoni       : ED, misc. LED, open-shell LED, HFLD           
  Martin Brehm           : Molecular dynamics                            
  Dmytro Bykov           : pre 5.0 version of the SCF Hessian            
  Marcos Casanova-Páez   : Triplet and SCS-CIS(D). UHF-(DLPNO)-IP/EA/STEOM-CCSD. UHF-CVS-IP/STEOM-CCSD   
  Vijay G. Chilkuri      : MRCI spin determinant printing, contributions to CSF-ICE 
  Pauline Colinet        : FMM embedding                                 
  Dipayan Datta          : RHF DLPNO-CCSD density                        
  Achintya Kumar Dutta   : EOM-CC, STEOM-CC                              
  Nicolas Foglia         : Exact transition moments, OPA infrastructure, MCD improvements    
  Dmitry Ganyushin       : Spin-Orbit,Spin-Spin,Magnetic field MRCI      
  Miquel Garcia-Rates    : C-PCM and meta-GGA Hessian, CCSD/C-PCM, Gaussian charge scheme 
  Tiago L. C. Gouveia    : GS-ROHF, GS-ROCIS                             
  Yang Guo               : DLPNO-NEVPT2, F12-NEVPT2, CIM, IAO-localization        
  Andreas Hansen         : Spin unrestricted coupled pair/coupled cluster methods 
  Ingolf Harden          : AUTO-CI MPn and infrastructure                
  Benjamin Helmich-Paris : MC-RPA, TRAH-(SCF,CASSCF), AVAS, COSX integrals, SCF dyn. polar. 
  Lee Huntington         : MR-EOM, pCC                                   
  Robert Izsak           : Overlap fitted RIJCOSX, COSX-SCS-MP3, EOM     
  Riya Kayal             : Wick's Theorem for AUTO-CI, AUTO-CI UHF-CCSDT 
  Emily Kempfer          : AUTO-CI, RHF CISDT and CCSDT                  
  Christian Kollmar      : KDIIS, OOCD, Brueckner-CCSD(T), CCSD density, CASPT2, CASPT2-K, improved NEVPT2 
  Axel Koslowski         : Symmetry handling                             
  Simone Kossmann        : meta-GGA functionals, TD-DFT gradient, OOMP2, (MP2 Hessian; deprecated post 5.0) 
  Lucas Lang             : DCDCAS                                        
  Marvin Lechner         : AUTO-CI (C++ implementation), FIC-MRCC        
  Spencer Leger          : CASSCF response                               
  Dagmar Lenk            : GEPOL surface, SMD, ORCA-2-JSON               
  Dimitrios Liakos       : Extrapolation schemes; Compound Job, initial MDCI parallelization 
  Dimitrios Manganas     : Further ROCIS development; embedding schemes. LFT, Crystal Embedding 
  Dimitrios Pantazis     : SARC Basis sets                               
  Anastasios Papadopoulos: AUTO-CI, single reference methods and gradients 
  Taras Petrenko         : pre 6.0 DFT Hessian and TD-DFT gradient, (ASA, deprecated), ECA, 1-Electron XAS/XES, NRVS 
  Peter Pinski           : DLPNO-MP2, DLPNO-MP2 Gradient                 
  Christoph Reimann      : Effective Core Potentials                     
  Marius Retegan         : Local ZFS, SOC                                
  Christoph Riplinger    : Optimizer, TS searches, QM/MM, DLPNO-CCSD(T), (RO)-DLPNO pert. Triples 
  Michael Roemelt        : Original ROCIS implementation                 
  Masaaki Saitow         : Open-shell DLPNO-CCSD energy and density      
  Barbara Sandhoefer     : DKH picture change effects                    
  Kantharuban Sivalingam : CASSCF convergence/infrastructure, NEVPT2 and variants, FIC-MRCI 
  Bernardo de Souza      : ESD, SOC TD-DFT                               
  Georgi L. Stoychev     : AutoAux, RI-MP2 NMR, DLPNO-MP2 response, X2C  
  Van Anh Tran           : RI-MP2 g-tensors                              
  Willem Van den Heuvel  : Paramagnetic NMR                              
  Zikuan Wang            : NOTCH, Electric field optimization            
  Frank Wennmohs         : Technical directorship and infrastructure     
  Hang Xu                : AUTO-CI-Response properties                   
                                                                         
[FACCTs GmbH]                                                            
  Markus Bursch, Miquel Garcia-Rates, Christoph Riplinger, Bernardo de Souza, Georgi L. Stoychev 
                                                                 
  APM, Basis sets (HGBS, AHGBS, def-TZVP (Ac-Lr), def2-XVPD (La-Lu)), CI-OPT, improved COSX, DLPNO-Multilevel,           
  DOCKER, DRACO, updates on ESD, GOAT, IRC, LR-CPCM, MBIS, meta-GGA TD-DFT gradient, ML-optimized integration grids, 
  MM, NACMEs, nearIR, NEB, NEB-TS, NL-DFT gradient (VV10), 2- and 3-layer-ONIOM, interface openCOSMO-RS, QMMM,   
  Crystal-QMMM, SF, symmetry and pop. for TD-DFT, r2SCAN hybrids, SOLVATOR                                   
                                                                         
[Other institutions]                                                     
  V. Asgeirsson          : NEB                                           
  Christoph Bannwarth    : sTDA-DFT, sTD-DFT, PBEh-3c, B97-3c, D3        
  Sebastian Ehlert       : rSCAN, r2SCAN, r2SCAN-3c, D4, dhf basis sets  
  Marvin Friede          : D4 for Fr, Ra, Ac-Lr                          
  Lars Goerigk           : TD-DFT with DH, B97 family of functionals     
  Stefan Grimme          : VdW corrections, initial TS optimization, DFT functionals, gCP, sTDA/sTD-DF 
  Waldemar Hujo          : DFT-NL                                        
  H. Jonsson             : NEB                                           
  Holger Kruse           : gCP                                           
  Marcel Mueller         : wB97X-3c, vDZP basis set                      
  Hagen Neugebauer       : wr2SCAN                                       
  Tobias Risthaus        : range-separated hybrid DFT                    
  Lukas Wittmann         : regularized MP2, r2SCAN double-hybrids, wr2SCAN        
                                                                         
We gratefully acknowledge several colleagues who have allowed us to      
interface, adapt or use parts of their codes:                            
  Ed Valeev, F. Pavosevic, A. Kumar             : LibInt (2-el integral package), F12 methods 
  Garnet Chan, S. Sharma, J. Yang, R. Olivares  : DMRG                   
  Ulf Ekstrom                                   : XCFun DFT Library      
  Mihaly Kallay                                 : mrcc  (arbitrary order and MRCC methods)
  Frank Weinhold                                : gennbo (NPA and NBO analysis)           
  Simon Mueller                                 : openCOSMO-RS                            
  Christopher J. Cramer and Donald G. Truhlar   : smd solvation model                     
  S Lehtola, MJT Oliveira, MAL Marques          : LibXC Library                           
  Liviu Ungur et al                             : ANISO software                          


 Your calculation uses the libint2 library for the computation of 2-el integrals
 For citations please refer to: http://libint.valeyev.net

 Your ORCA version has been built with support for libXC version: 6.2.2
 For citations please refer to: https://libxc.gitlab.io

 This ORCA versions uses:
   CBLAS   interface :  Fast vector & matrix operations
   LAPACKE interface :  Fast linear algebra routines
   SCALAPACK package :  Parallel linear algebra routines
   Shared memory     :  Shared parallel matrices


NOTE: MaxCore=10000 MB was set to SCF,MP2,MDCI,CIPSI,MRCI and CIS
      => If you want to overwrite this, your respective input block should be placed after the MaxCore statement
Warning: RI is on but no J-basis has been assigned. Assigning Def2/J (nothing to worry about!)
================================================================================

----- Orbital basis set information -----
Your calculation utilizes the basis: def2-TZVPP
   F. Weigend and R. Ahlrichs, Phys. Chem. Chem. Phys. 7, 3297 (2005).

----- AuxJ basis set information -----
Your calculation utilizes the auxiliary basis: def2/J
   F. Weigend, Phys. Chem. Chem. Phys. 8, 1057 (2006).

================================================================================
                                        WARNINGS
                       Please study these warnings very carefully!
================================================================================

WARNING: Old DensityContainer found on disk!
         Will remove this file - 
         If you want to keep old densities, please start your calculation with a different basename. 


================================================================================
                                       INPUT FILE
================================================================================
NAME = benzal_chloride_b3lyp_def2tzvpp_pol.inp
|  1> ! B3LYP def2-TZVPP
|  2> 
|  3> %MaxCore 10000
|  4> 
|  5> %elprop
|  6> Polar 1
|  7> end
|  8> 
|  9> * xyz 0 1
| 10>   Cl  2.53472848782682     -0.16102191079696     -1.47533772496125
| 11>   Cl  2.53474299300801     -0.16316662563317      1.47517546572605
| 12>   C   0.24840819569841      0.20233613374586      0.00018661211263
| 13>   C   -0.64068102335793      1.27428478025160      0.00081903411514
| 14>   C   -0.24820006145181     -1.10182312870802     -0.00064775915707
| 15>   C   1.71950353838917      0.48474796831750      0.00039650463350
| 16>   C   -2.01409910612749      1.04896380692966      0.00061990571895
| 17>   C   -1.61628180274550     -1.32486894586471     -0.00084207221412
| 18>   C   -2.50346093349892     -0.25026279308798     -0.00021131814678
| 19>   H   -0.26185913521701      2.28891120618995      0.00146679383123
| 20>   H   0.43892671792030     -1.93733470382279     -0.00114439389832
| 21>   H   1.92010313574198      1.54853896438079      0.00116469460244
| 22>   H   -2.69583866771020      1.88917513731446      0.00111323139944
| 23>   H   -1.99452267977882     -2.33873833253597     -0.00149158926928
| 24>   H   -3.57097965869701     -0.42903155668024     -0.00036738449256
| 25> *
| 26> 
| 27> 
| 28>                          ****END OF INPUT****
================================================================================

                       ****************************
                       * Single Point Calculation *
                       ****************************

---------------------------------
CARTESIAN COORDINATES (ANGSTROEM)
---------------------------------
  Cl     2.534728   -0.161022   -1.475338
  Cl     2.534743   -0.163167    1.475175
  C      0.248408    0.202336    0.000187
  C     -0.640681    1.274285    0.000819
  C     -0.248200   -1.101823   -0.000648
  C      1.719504    0.484748    0.000397
  C     -2.014099    1.048964    0.000620
  C     -1.616282   -1.324869   -0.000842
  C     -2.503461   -0.250263   -0.000211
  H     -0.261859    2.288911    0.001467
  H      0.438927   -1.937335   -0.001144
  H      1.920103    1.548539    0.001165
  H     -2.695839    1.889175    0.001113
  H     -1.994523   -2.338738   -0.001492
  H     -3.570980   -0.429032   -0.000367

----------------------------
CARTESIAN COORDINATES (A.U.)
----------------------------
  NO LB      ZA    FRAG     MASS         X           Y           Z
   0 Cl   17.0000    0    35.453    4.789943   -0.304287   -2.787984
   1 Cl   17.0000    0    35.453    4.789970   -0.308340    2.787678
   2 C     6.0000    0    12.011    0.469423    0.382360    0.000353
   3 C     6.0000    0    12.011   -1.210712    2.408049    0.001548
   4 C     6.0000    0    12.011   -0.469030   -2.082144   -0.001224
   5 C     6.0000    0    12.011    3.249391    0.916041    0.000749
   6 C     6.0000    0    12.011   -3.806096    1.982254    0.001171
   7 C     6.0000    0    12.011   -3.054330   -2.503639   -0.001591
   8 C     6.0000    0    12.011   -4.730856   -0.472928   -0.000399
   9 H     1.0000    0     1.008   -0.494842    4.325415    0.002772
  10 H     1.0000    0     1.008    0.829451   -3.661032   -0.002163
  11 H     1.0000    0     1.008    3.628469    2.926315    0.002201
  12 H     1.0000    0     1.008   -5.094397    3.570024    0.002104
  13 H     1.0000    0     1.008   -3.769102   -4.419575   -0.002819
  14 H     1.0000    0     1.008   -6.748174   -0.810752   -0.000694

--------------------------------
INTERNAL COORDINATES (ANGSTROEM)
--------------------------------
 Cl     0   0   0     0.000000000000     0.00000000     0.00000000
 Cl     1   0   0     2.950513970215     0.00000000     0.00000000
 C      1   2   0     2.745261666222    57.49454165     0.00000000
 C      3   1   2     1.392678692357   129.33084850   121.48565861
 C      3   1   2     1.395511318152    99.92474320   263.60411174
 C      3   1   2     1.497957941882    37.54637753    33.99916194
 C      4   3   1     1.391778290803   120.35591400   135.98812896
 C      5   3   1     1.386144698496   120.10600770   213.06540110
 C      7   4   3     1.388331893754   119.95606167     0.00000000
 H      4   3   1     1.083038885147   119.85355275   315.98828859
 H      5   3   1     1.081768482499   119.71981038    33.06524680
 H      6   3   1     1.082539639865   111.54597613   118.13647311
 H      7   4   3     1.082000070658   119.73867611   180.00018416
 H      8   5   3     1.082126478819   119.71864131   179.99992796
 H      9   7   4     1.082383723012   120.14584737   179.99994022

---------------------------
INTERNAL COORDINATES (A.U.)
---------------------------
 Cl     0   0   0     0.000000000000     0.00000000     0.00000000
 Cl     1   0   0     5.575663358014     0.00000000     0.00000000
 C      1   2   0     5.187792715112    57.49454165     0.00000000
 C      3   1   2     2.631781321102   129.33084850   121.48565861
 C      3   1   2     2.637134208094    99.92474320   263.60411174
 C      3   1   2     2.830730270289    37.54637753    33.99916194
 C      4   3   1     2.630079808754   120.35591400   135.98812896
 C      5   3   1     2.619433862145   120.10600770   213.06540110
 C      7   4   3     2.623567062183   119.95606167     0.00000000
 H      4   3   1     2.046646885315   119.85355275   315.98828859
 H      5   3   1     2.044246172230   119.71981038    33.06524680
 H      6   3   1     2.045703448459   111.54597613   118.13647311
 H      7   4   3     2.044683810427   119.73867611   180.00018416
 H      8   5   3     2.044922687232   119.71864131   179.99992796
 H      9   7   4     2.045408808307   120.14584737   179.99994022

---------------------
BASIS SET INFORMATION
---------------------
There are 3 groups of distinct atoms

 Group   1 Type Cl  : 14s9p3d1f contracted to 5s5p3d1f pattern {73211/51111/111/1}
 Group   2 Type C   : 11s6p2d1f contracted to 5s3p2d1f pattern {62111/411/11/1}
 Group   3 Type H   : 5s2p1d contracted to 3s2p1d pattern {311/11/1}

Atom   0Cl   basis set group =>   1
Atom   1Cl   basis set group =>   1
Atom   2C    basis set group =>   2
Atom   3C    basis set group =>   2
Atom   4C    basis set group =>   2
Atom   5C    basis set group =>   2
Atom   6C    basis set group =>   2
Atom   7C    basis set group =>   2
Atom   8C    basis set group =>   2
Atom   9H    basis set group =>   3
Atom  10H    basis set group =>   3
Atom  11H    basis set group =>   3
Atom  12H    basis set group =>   3
Atom  13H    basis set group =>   3
Atom  14H    basis set group =>   3
---------------------------------
AUXILIARY/J BASIS SET INFORMATION
---------------------------------
There are 3 groups of distinct atoms

 Group   1 Type Cl  : 14s5p5d2f1g contracted to 8s4p3d1f1g pattern {71111111/2111/311/2/1}
 Group   2 Type C   : 12s5p4d2f1g contracted to 6s4p3d1f1g pattern {711111/2111/211/2/1}
 Group   3 Type H   : 5s2p1d contracted to 3s1p1d pattern {311/2/1}

Atom   0Cl   basis set group =>   1
Atom   1Cl   basis set group =>   1
Atom   2C    basis set group =>   2
Atom   3C    basis set group =>   2
Atom   4C    basis set group =>   2
Atom   5C    basis set group =>   2
Atom   6C    basis set group =>   2
Atom   7C    basis set group =>   2
Atom   8C    basis set group =>   2
Atom   9H    basis set group =>   3
Atom  10H    basis set group =>   3
Atom  11H    basis set group =>   3
Atom  12H    basis set group =>   3
Atom  13H    basis set group =>   3
Atom  14H    basis set group =>   3
------------------------------------------------------------------------------
                             ORCA STARTUP CALCULATIONS
                           -- RI-GTO INTEGRALS CHOSEN --
------------------------------------------------------------------------------
------------------------------------------------------------------------------
                   ___                                                        
                  /   \      - P O W E R E D   B Y -                         
                 /     \                                                     
                 |  |  |   _    _      __       _____    __    __             
                 |  |  |  | |  | |    /  \     |  _  \  |  |  /  |          
                  \  \/   | |  | |   /    \    | | | |  |  | /  /          
                 / \  \   | |__| |  /  /\  \   | |_| |  |  |/  /          
                |  |  |   |  __  | /  /__\  \  |    /   |      \           
                |  |  |   | |  | | |   __   |  |    \   |  |\   \          
                \     /   | |  | | |  |  |  |  | |\  \  |  | \   \       
                 \___/    |_|  |_| |__|  |__|  |_| \__\ |__|  \__/        
                                                                              
                      - O R C A' S   B I G   F R I E N D -                    
                                      &                                       
                       - I N T E G R A L  F E E D E R -                       
                                                                              
 v1 FN, 2020, v2 2021, v3 2022-2024                                           
------------------------------------------------------------------------------


----------------------
SHARK INTEGRAL PACKAGE
----------------------

Number of atoms                             ...     15
Number of basis functions                   ...    385
Number of shells                            ...    141
Maximum angular momentum                    ...      3
Integral batch strategy                     ... SHARK/LIBINT Hybrid
RI-J (if used) integral strategy            ... SPLIT-RIJ (Revised 2003 algorithm where possible)
Printlevel                                  ...      1
Contraction scheme used                     ... SEGMENTED contraction
Prescreening option                         ... SCHWARTZ
   Thresh                                   ... 1.000e-10
   Tcut                                     ... 1.000e-11
   Tpresel                                  ... 1.000e-11 
Coulomb Range Separation                    ... NOT USED
Exchange Range Separation                   ... NOT USED
Multipole approximations                    ... NOT USED
Finite Nucleus Model                        ... NOT USED
CABS basis                                  ... NOT available
Auxiliary Coulomb fitting basis             ... AVAILABLE
   # of basis functions in Aux-J            ...    511
   # of shells in Aux-J                     ...    169
   Maximum angular momentum in Aux-J        ...      4
Auxiliary J/K fitting basis                 ... NOT available
Auxiliary Correlation fitting basis         ... NOT available
Auxiliary 'external' fitting basis          ... NOT available

Checking pre-screening integrals            ... done (  0.0 sec) Dimension = 141
Check shell pair data                       ... done (  0.0 sec)
Shell pair information
Shell pair cut-off parameter TPreSel        ...   1.0e-11
Total number of shell pairs                 ...     10011
Shell pairs after pre-screening             ...      8619
Total number of primitive shell pairs       ...     29645
Primitive shell pairs kept                  ...     18853
          la=0 lb=0:   1691 shell pairs
          la=1 lb=0:   2342 shell pairs
          la=1 lb=1:    845 shell pairs
          la=2 lb=0:   1367 shell pairs
          la=2 lb=1:    970 shell pairs
          la=2 lb=2:    301 shell pairs
          la=3 lb=0:    502 shell pairs
          la=3 lb=1:    350 shell pairs
          la=3 lb=2:    208 shell pairs
          la=3 lb=3:     43 shell pairs

Calculating one electron integrals          ... done (  0.0 sec)
Calculating RI/J V-Matrix + Cholesky decomp.... done (  0.0 sec)
Calculating Nuclear repulsion               ... done (  0.0 sec) ENN=    556.549375678032 Eh

Diagonalization of the overlap matrix:
Smallest eigenvalue                        ... 8.569e-06
Time for diagonalization                   ...    0.009 sec
Threshold for overlap eigenvalues          ... 1.000e-07
Number of eigenvalues below threshold      ... 0
Time for construction of square roots      ...    0.002 sec
Total time needed                          ...    0.011 sec

-------------------
DFT GRID GENERATION
-------------------

General Integration Accuracy     IntAcc      ... 4.388
Radial Grid Type                 RadialGrid  ... OptM3 with GC (2021)
Angular Grid (max. ang.)         AngularGrid ... 4 (Lebedev-302)
Angular grid pruning method      GridPruning ... 4 (adaptive)
Weight generation scheme         WeightScheme... mBecke (2022)
Basis function cutoff            BFCut       ... 1.0000e-10
Integration weight cutoff        WCut        ... 1.0000e-14
Partially contracted basis set               ... off
Rotationally invariant grid construction     ... off
Angular grids for H and He will be reduced by one unit

Total number of grid points                  ...    75960
Total number of batches                      ...     1194
Average number of points per batch           ...       63
Average number of grid points per atom       ...     5064

--------------------
COSX GRID GENERATION
--------------------

GRIDX 1
-------
General Integration Accuracy     IntAcc      ... 3.816
Radial Grid Type                 RadialGrid  ... OptM3 with GC (2021)
Angular Grid (max. ang.)         AngularGrid ... 1 (Lebedev-50)
Angular grid pruning method      GridPruning ... 4 (adaptive)
Weight generation scheme         WeightScheme... mBecke (2022)
Basis function cutoff            BFCut       ... 1.0000e-10
Integration weight cutoff        WCut        ... 1.0000e-14
Partially contracted basis set               ... on
Rotationally invariant grid construction     ... off
Angular grids for H and He will be reduced by one unit

Total number of grid points                  ...    11755
Total number of batches                      ...       99
Average number of points per batch           ...      118
Average number of grid points per atom       ...      784
UseSFitting                                  ... on

GRIDX 2
-------
General Integration Accuracy     IntAcc      ... 4.020
Radial Grid Type                 RadialGrid  ... OptM3 with GC (2021)
Angular Grid (max. ang.)         AngularGrid ... 2 (Lebedev-110)
Angular grid pruning method      GridPruning ... 4 (adaptive)
Weight generation scheme         WeightScheme... mBecke (2022)
Basis function cutoff            BFCut       ... 1.0000e-10
Integration weight cutoff        WCut        ... 1.0000e-14
Partially contracted basis set               ... on
Rotationally invariant grid construction     ... off
Angular grids for H and He will be reduced by one unit

Total number of grid points                  ...    21054
Total number of batches                      ...      170
Average number of points per batch           ...      123
Average number of grid points per atom       ...     1404
UseSFitting                                  ... on

GRIDX 3
-------
General Integration Accuracy     IntAcc      ... 4.338
Radial Grid Type                 RadialGrid  ... OptM3 with GC (2021)
Angular Grid (max. ang.)         AngularGrid ... 3 (Lebedev-194)
Angular grid pruning method      GridPruning ... 4 (adaptive)
Weight generation scheme         WeightScheme... mBecke (2022)
Basis function cutoff            BFCut       ... 1.0000e-10
Integration weight cutoff        WCut        ... 1.0000e-14
Partially contracted basis set               ... on
Rotationally invariant grid construction     ... off
Angular grids for H and He will be reduced by one unit

Total number of grid points                  ...    47464
Total number of batches                      ...      379
Average number of points per batch           ...      125
Average number of grid points per atom       ...     3164
UseSFitting                                  ... on
Initializing property integral containers    ... done (  0.0 sec)

SHARK setup successfully completed in   1.0 seconds

Maximum memory used throughout the entire STARTUP-calculation: 51.7 MB
-------------------------------------------------------------------------------
                                 ORCA GUESS
                   Start orbitals & Density for SCF / CASSCF
-------------------------------------------------------------------------------

------------
SCF SETTINGS
------------
Hamiltonian:
 Density Functional     Method          .... DFT(GTOs)
 Exchange Functional    Exchange        .... B88
   X-Alpha parameter    XAlpha          ....  0.666667
   Becke's b parameter  XBeta           ....  0.004200
 Correlation Functional Correlation     .... LYP
 LDA part of GGA corr.  LDAOpt          .... VWN-5
 Gradients option       PostSCFGGA      .... off
 Hybrid DFT is turned on
   Fraction HF Exchange ScalHFX         ....  0.200000
   Scaling of DF-GGA-X  ScalDFX         ....  0.720000
   Scaling of DF-GGA-C  ScalDFC         ....  0.810000
   Scaling of DF-LDA-C  ScalLDAC        ....  1.000000
   Perturbative correction              ....  0.000000
   NL short-range parameter             ....  4.800000
 RI-approximation to the Coulomb term is turned on
   Number of AuxJ basis functions       .... 511
   RIJ-COSX (HFX calculated with COS-X)).... on


General Settings:
 Integral files         IntName         .... benzal_chloride_b3lyp_def2tzvpp_pol
 Hartree-Fock type      HFTyp           .... RHF
 Total Charge           Charge          ....    0
 Multiplicity           Mult            ....    1
 Number of Electrons    NEL             ....   82
 Basis Dimension        Dim             ....  385
 Nuclear Repulsion      ENuc            ....    556.5493756780 Eh

Convergence Acceleration:
 AO-DIIS                CNVDIIS         .... on
   Start iteration      DIISMaxIt       ....    12
   Startup error        DIISStart       ....  0.200000
   # of expansion vecs  DIISMaxEq       ....     5
   Bias factor          DIISBfac        ....   1.050
   Max. coefficient     DIISMaxC        ....  10.000
 MO-DIIS                CNVKDIIS        .... off
 Trust-Rad. Augm. Hess. CNVTRAH         .... auto
   Auto Start mean grad. ratio tolernc. ....  1.125000
   Auto Start start iteration           ....    50
   Auto Start num. interpolation iter.  ....    10
   Max. Number of Micro iterations      ....    24
   Max. Number of Macro iterations      .... Maxiter - #DIIS iter
   Number of Davidson start vectors     ....     2
   Converg. threshold    (grad. norm)   ....   5.000e-05
   Grad. Scal. Fac. for Micro threshold ....   0.100
   Minimum threshold for Micro iter.    ....   1.000e-02
   NR start threshold (gradient norm)   ....   1.000e-04
   Initial trust radius                 ....   0.400
   Minimum AH scaling param. (alpha)    ....   1.000
   Maximum AH scaling param. (alpha)    .... 1000.000
   Quad. conv. algorithm                .... NR
   White noise on init. David. guess    .... on
   Maximum white noise                  ....   0.010
   Pseudo random numbers                .... off
   Inactive MOs                         .... canonical
   Orbital update algorithm             .... Taylor
   Preconditioner                       .... Diag
   Full preconditioner red. dimension   ....   250
 SOSCF                  CNVSOSCF        .... on
   Start iteration      SOSCFMaxIt      ....   150
   Startup grad/error   SOSCFStart      ....  0.003300
   Hessian update       SOSCFHessUp     .... L-BFGS
 Level Shifting         CNVShift        .... on
   Level shift para.    LevelShift      ....    0.2500
   Turn off err/grad.   ShiftErr        ....    0.0010
 Zerner damping         CNVZerner       .... off
 Static damping         CNVDamp         .... on
   Fraction old density DampFac         ....    0.7000
   Max. Damping (<1)    DampMax         ....    0.9800
   Min. Damping (>=0)   DampMin         ....    0.0000
   Turn off err/grad.   DampErr         ....    0.1000

SCF Procedure:
 Maximum # iterations   MaxIter         ....   125
 SCF integral mode      SCFMode         .... Direct
   Integral package                     .... SHARK and LIBINT hybrid scheme
 Reset frequency        DirectResetFreq ....    20
 Integral Threshold     Thresh          ....  1.000e-10 Eh
 Primitive CutOff       TCut            ....  1.000e-11 Eh

Convergence Tolerance:
 Convergence Check Mode ConvCheckMode   .... Total+1el-Energy
 Convergence forced     ConvForced      .... 0
 Energy Change          TolE            ....  1.000e-06 Eh
 1-El. energy change                    ....  1.000e-03 Eh
 Orbital Gradient       TolG            ....  5.000e-05
 Orbital Rotation angle TolX            ....  5.000e-05
 DIIS Error             TolErr          ....  1.000e-06

------------------------------
INITIAL GUESS: MODEL POTENTIAL
------------------------------
Loading Hartree-Fock densities                     ... done
Calculating cut-offs                               ... done
Initializing the effective Hamiltonian             ... done
Setting up the integral package (SHARK)            ... done
Starting the Coulomb interaction                   ... done (   0.2 sec)
Making the grid                                    ... done (   0.1 sec)
Mapping shells                                     ... done
Starting the XC term evaluation                    ... done (   0.3 sec)
  promolecular density results
     # of electrons  =     81.993385900
     EX              =    -92.823339455
     EC              =     -3.018113453
     EX+EC           =    -95.841452908
Transforming the Hamiltonian                       ... done (   0.0 sec)
Diagonalizing the Hamiltonian                      ... done (   0.0 sec)
Back transforming the eigenvectors                 ... done (   0.0 sec)
Now organizing SCF variables                       ... done
                      ------------------
                      INITIAL GUESS DONE (   0.6 sec)
                      ------------------
             **** ENERGY FILE WAS UPDATED (benzal_chloride_b3lyp_def2tzvpp_pol.en.tmp) ****
Finished Guess after   0.7 sec
Maximum memory used throughout the entire GUESS-calculation: 36.5 MB

-------------------------------------------------------------------------------------------
                                      ORCA LEAN-SCF
                              memory conserving SCF solver
-------------------------------------------------------------------------------------------

----------------------------------------D-I-I-S--------------------------------------------
Iteration    Energy (Eh)           Delta-E    RMSDP     MaxDP     DIISErr   Damp  Time(sec)
-------------------------------------------------------------------------------------------
               ***  Starting incremental Fock matrix formation  ***
    1    -1190.4387379234383388     0.00e+00  9.30e-04  2.95e-02  1.51e-01  0.700   8.5
    2    -1190.5138984881493798    -7.52e-02  6.90e-04  2.06e-02  7.74e-02  0.700   4.8
                               ***Turning on AO-DIIS***
    3    -1190.5461944569685784    -3.23e-02  3.41e-04  1.16e-02  3.11e-02  0.700   4.5
    4    -1190.5650283976124229    -1.88e-02  6.58e-04  2.26e-02  1.70e-02  0.000   4.1
    5    -1190.6057387707176076    -4.07e-02  1.12e-04  3.91e-03  3.81e-03  0.000   4.2
                              *** Initializing SOSCF ***
---------------------------------------S-O-S-C-F--------------------------------------
Iteration    Energy (Eh)           Delta-E    RMSDP     MaxDP     MaxGrad    Time(sec)
--------------------------------------------------------------------------------------
    6    -1190.6059424380912333    -2.04e-04  5.09e-05  1.26e-03  7.22e-04     3.8
               *** Restarting incremental Fock matrix formation ***
    7    -1190.6059470912684901    -4.65e-06  4.32e-05  9.18e-04  1.67e-04     8.2
    8    -1190.6059473986776993    -3.07e-07  1.37e-05  3.18e-04  2.69e-04     5.7
                 **** Energy Check signals convergence ****

               *****************************************************
               *                     SUCCESS                       *
               *           SCF CONVERGED AFTER   8 CYCLES          *
               *****************************************************

Recomputing exchange energy using gridx3       ... done (   14.528 sec)
Old exchange energy                            :    -18.706644417 Eh
New exchange energy                            :    -18.706642537 Eh
Exchange energy change after final integration :      0.000001880 Eh
Total energy after final integration           :  -1190.605945518 Eh
             **** ENERGY FILE WAS UPDATED (benzal_chloride_b3lyp_def2tzvpp_pol.en.tmp) ****

----------------
TOTAL SCF ENERGY
----------------

Total Energy       :      -1190.60594551838130 Eh          -32398.03486 eV

Components:
Nuclear Repulsion  :        556.54937567803177 Eh           15144.47844 eV
Electronic Energy  :      -1747.15532307670946 Eh          -47542.51336 eV
One Electron Energy:      -2741.05483455154899 Eh          -74587.89402 eV
Two Electron Energy:        993.89951147483964 Eh           27045.38067 eV

Virial components:
Potential Energy   :      -2378.75532534962895 Eh          -64729.22317 eV
Kinetic Energy     :       1188.14937983124764 Eh           32331.18831 eV
Virial Ratio       :          2.00206755625920

DFT components:
N(Alpha)           :       40.999949921260 electrons
N(Beta)            :       40.999949921260 electrons
N(Total)           :       81.999899842520 electrons
E(X)               :      -74.262531955782 Eh       
E(C)               :       -3.549246681644 Eh       
E(XC)              :      -77.811778637426 Eh       

---------------
SCF CONVERGENCE
---------------

  Last Energy change         ...    3.0741e-07  Tolerance :   1.0000e-06
  Last MAX-Density change    ...    3.1756e-04  Tolerance :   1.0000e-05
  Last RMS-Density change    ...    1.3731e-05  Tolerance :   1.0000e-06
  Last DIIS Error            ...    7.2214e-04  Tolerance :   1.0000e-06
  Last Orbital Gradient      ...    2.6857e-04  Tolerance :   5.0000e-05
  Last Orbital Rotation      ...    2.1035e-04  Tolerance :   5.0000e-05


----------------
ORBITAL ENERGIES
----------------

  NO   OCC          E(Eh)            E(eV) 
   0   2.0000    -101.523343     -2762.5906 
   1   2.0000    -101.523338     -2762.5905 
   2   2.0000     -10.299183      -280.2550 
   3   2.0000     -10.204526      -277.6793 
   4   2.0000     -10.192205      -277.3440 
   5   2.0000     -10.188220      -277.2356 
   6   2.0000     -10.188018      -277.2301 
   7   2.0000     -10.187634      -277.2196 
   8   2.0000     -10.186815      -277.1973 
   9   2.0000      -9.455797      -257.3053 
  10   2.0000      -9.455788      -257.3051 
  11   2.0000      -7.217495      -196.3980 
  12   2.0000      -7.217488      -196.3978 
  13   2.0000      -7.208682      -196.1582 
  14   2.0000      -7.208679      -196.1581 
  15   2.0000      -7.208401      -196.1506 
  16   2.0000      -7.208399      -196.1505 
  17   2.0000      -0.909046       -24.7364 
  18   2.0000      -0.865728       -23.5577 
  19   2.0000      -0.818073       -22.2609 
  20   2.0000      -0.772424       -21.0187 
  21   2.0000      -0.762709       -20.7544 
  22   2.0000      -0.671548       -18.2738 
  23   2.0000      -0.624784       -17.0012 
  24   2.0000      -0.595952       -16.2167 
  25   2.0000      -0.534509       -14.5447 
  26   2.0000      -0.494490       -13.4558 
  27   2.0000      -0.476352       -12.9622 
  28   2.0000      -0.450520       -12.2593 
  29   2.0000      -0.446195       -12.1416 
  30   2.0000      -0.440550       -11.9880 
  31   2.0000      -0.433005       -11.7827 
  32   2.0000      -0.382111       -10.3978 
  33   2.0000      -0.374031       -10.1779 
  34   2.0000      -0.361157        -9.8276 
  35   2.0000      -0.325951        -8.8696 
  36   2.0000      -0.324984        -8.8433 
  37   2.0000      -0.306125        -8.3301 
  38   2.0000      -0.304389        -8.2829 
  39   2.0000      -0.271600        -7.3906 
  40   2.0000      -0.264512        -7.1977 
  41   0.0000      -0.044146        -1.2013 
  42   0.0000      -0.025392        -0.6909 
  43   0.0000      -0.010550        -0.2871 
  44   0.0000       0.038504         1.0478 
  45   0.0000       0.044355         1.2070 
  46   0.0000       0.056220         1.5298 
  47   0.0000       0.077900         2.1198 
  48   0.0000       0.090836         2.4718 
  49   0.0000       0.104965         2.8563 
  50   0.0000       0.119063         3.2399 
  51   0.0000       0.126652         3.4464 
*Only the first 10 virtual orbitals were printed.

                    ********************************
                    * MULLIKEN POPULATION ANALYSIS *
                    ********************************

-----------------------
MULLIKEN ATOMIC CHARGES
-----------------------
   0 Cl:   -0.125470
   1 Cl:   -0.125472
   2 C :    0.046129
   3 C :   -0.126022
   4 C :   -0.162907
   5 C :    0.043795
   6 C :   -0.129191
   7 C :   -0.115802
   8 C :   -0.134937
   9 H :    0.125548
  10 H :    0.133100
  11 H :    0.152471
  12 H :    0.138544
  13 H :    0.140561
  14 H :    0.139653
Sum of atomic charges:   -0.0000000

--------------------------------
MULLIKEN REDUCED ORBITAL CHARGES
--------------------------------
  0 Cls       :     5.910709  s :     5.910709
      pz      :     3.476054  p :    11.156437
      px      :     3.815473
      py      :     3.864910
      dz2     :     0.015200  d :     0.053423
      dxz     :     0.016142
      dyz     :     0.012163
      dx2y2   :     0.005434
      dxy     :     0.004484
      f0      :     0.000741  f :     0.004900
      f+1     :     0.001392
      f-1     :     0.000925
      f+2     :     0.000658
      f-2     :     0.000907
      f+3     :     0.000144
      f-3     :     0.000133

  1 Cls       :     5.910713  s :     5.910713
      pz      :     3.476632  p :    11.156435
      px      :     3.815466
      py      :     3.864337
      dz2     :     0.015174  d :     0.053425
      dxz     :     0.016126
      dyz     :     0.012182
      dx2y2   :     0.005442
      dxy     :     0.004501
      f0      :     0.000739  f :     0.004900
      f+1     :     0.001389
      f-1     :     0.000927
      f+2     :     0.000657
      f-2     :     0.000910
      f+3     :     0.000144
      f-3     :     0.000134

  2 C s       :     3.231772  s :     3.231772
      pz      :     0.959490  p :     2.575606
      px      :     0.746382
      py      :     0.869735
      dz2     :     0.006026  d :     0.136526
      dxz     :     0.016564
      dyz     :     0.026110
      dx2y2   :     0.047314
      dxy     :     0.040512
      f0      :     0.001717  f :     0.009966
      f+1     :     0.000901
      f-1     :     0.000501
      f+2     :     0.000824
      f-2     :     0.001080
      f+3     :     0.002032
      f-3     :     0.002913

  3 C s       :     3.167837  s :     3.167837
      pz      :     0.959511  p :     2.857510
      px      :     0.918506
      py      :     0.979492
      dz2     :     0.003933  d :     0.093044
      dxz     :     0.022678
      dyz     :     0.008289
      dx2y2   :     0.028061
      dxy     :     0.030082
      f0      :     0.001366  f :     0.007632
      f+1     :     0.000462
      f-1     :     0.000602
      f+2     :     0.000692
      f-2     :     0.000857
      f+3     :     0.001510
      f-3     :     0.002144

  4 C s       :     3.208063  s :     3.208063
      pz      :     0.934850  p :     2.851733
      px      :     0.961269
      py      :     0.955613
      dz2     :     0.003949  d :     0.095505
      dxz     :     0.016811
      dyz     :     0.012938
      dx2y2   :     0.018570
      dxy     :     0.043236
      f0      :     0.001368  f :     0.007605
      f+1     :     0.000531
      f-1     :     0.000548
      f+2     :     0.001124
      f-2     :     0.000365
      f+3     :     0.001385
      f-3     :     0.002284

  5 C s       :     3.188639  s :     3.188639
      pz      :     0.724439  p :     2.582944
      px      :     0.861851
      py      :     0.996655
      dz2     :     0.041465  d :     0.175679
      dxz     :     0.048451
      dyz     :     0.026663
      dx2y2   :     0.033530
      dxy     :     0.025570
      f0      :     0.001670  f :     0.008943
      f+1     :     0.001433
      f-1     :     0.001149
      f+2     :     0.001468
      f-2     :     0.001239
      f+3     :     0.000859
      f-3     :     0.001125

  6 C s       :     3.193185  s :     3.193185
      pz      :     0.951800  p :     2.828874
      px      :     0.922876
      py      :     0.954198
      dz2     :     0.004708  d :     0.099691
      dxz     :     0.016670
      dyz     :     0.012819
      dx2y2   :     0.021185
      dxy     :     0.044309
      f0      :     0.001363  f :     0.007441
      f+1     :     0.000495
      f-1     :     0.000539
      f+2     :     0.001150
      f-2     :     0.000343
      f+3     :     0.001436
      f-3     :     0.002116

  7 C s       :     3.185731  s :     3.185731
      pz      :     0.948615  p :     2.822454
      px      :     0.892944
      py      :     0.980895
      dz2     :     0.004747  d :     0.100179
      dxz     :     0.020926
      dyz     :     0.008121
      dx2y2   :     0.033963
      dxy     :     0.032421
      f0      :     0.001358  f :     0.007438
      f+1     :     0.000421
      f-1     :     0.000604
      f+2     :     0.000687
      f-2     :     0.000780
      f+3     :     0.001426
      f-3     :     0.002162

  8 C s       :     3.202902  s :     3.202902
      pz      :     0.942648  p :     2.825590
      px      :     1.003392
      py      :     0.879550
      dz2     :     0.004465  d :     0.098987
      dxz     :     0.006572
      dyz     :     0.022654
      dx2y2   :     0.043060
      dxy     :     0.022236
      f0      :     0.001342  f :     0.007458
      f+1     :     0.000618
      f-1     :     0.000407
      f+2     :     0.000394
      f-2     :     0.001077
      f+3     :     0.001456
      f-3     :     0.002166

  9 H s       :     0.836636  s :     0.836636
      pz      :     0.012650  p :     0.036126
      px      :     0.009656
      py      :     0.013821
      dz2     :     0.000025  d :     0.001689
      dxz     :     0.000091
      dyz     :     0.000608
      dx2y2   :     0.000434
      dxy     :     0.000532

 10 H s       :     0.829807  s :     0.829807
      pz      :     0.011816  p :     0.035420
      px      :     0.010957
      py      :     0.012647
      dz2     :     0.000021  d :     0.001673
      dxz     :     0.000295
      dyz     :     0.000397
      dx2y2   :     0.000908
      dxy     :     0.000052

 11 H s       :     0.809617  s :     0.809617
      pz      :     0.010850  p :     0.035645
      px      :     0.012449
      py      :     0.012346
      dz2     :     0.000051  d :     0.002267
      dxz     :     0.000047
      dyz     :     0.001040
      dx2y2   :     0.000114
      dxy     :     0.001016

 12 H s       :     0.826886  s :     0.826886
      pz      :     0.012541  p :     0.032956
      px      :     0.009916
      py      :     0.010500
      dz2     :     0.000009  d :     0.001614
      dxz     :     0.000278
      dyz     :     0.000419
      dx2y2   :     0.000852
      dxy     :     0.000055

 13 H s       :     0.825144  s :     0.825144
      pz      :     0.012338  p :     0.032680
      px      :     0.008893
      py      :     0.011448
      dz2     :     0.000008  d :     0.001615
      dxz     :     0.000098
      dyz     :     0.000598
      dx2y2   :     0.000390
      dxy     :     0.000521

 14 H s       :     0.826227  s :     0.826227
      pz      :     0.012260  p :     0.032527
      px      :     0.011580
      py      :     0.008687
      dz2     :     0.000005  d :     0.001593
      dxz     :     0.000651
      dyz     :     0.000032
      dx2y2   :     0.000109
      dxy     :     0.000796



                     *******************************
                     * LOEWDIN POPULATION ANALYSIS *
                     *******************************

----------------------
LOEWDIN ATOMIC CHARGES
----------------------
   0 Cl:    0.313234
   1 Cl:    0.313244
   2 C :   -0.143691
   3 C :    0.004972
   4 C :    0.005355
   5 C :   -0.569140
   6 C :   -0.007332
   7 C :   -0.004779
   8 C :   -0.004027
   9 H :    0.019669
  10 H :    0.022816
  11 H :   -0.007905
  12 H :    0.018905
  13 H :    0.019822
  14 H :    0.018858

-------------------------------
LOEWDIN REDUCED ORBITAL CHARGES
-------------------------------
  0 Cls       :     5.605741  s :     5.605741
      pz      :     3.444675  p :    10.985937
      px      :     3.739514
      py      :     3.801747
      dz2     :     0.024531  d :     0.085415
      dxz     :     0.024522
      dyz     :     0.020153
      dx2y2   :     0.009035
      dxy     :     0.007173
      f0      :     0.001580  f :     0.009673
      f+1     :     0.002478
      f-1     :     0.001801
      f+2     :     0.001493
      f-2     :     0.001737
      f+3     :     0.000307
      f-3     :     0.000276

  1 Cls       :     5.605736  s :     5.605736
      pz      :     3.445200  p :    10.985931
      px      :     3.739507
      py      :     3.801225
      dz2     :     0.024490  d :     0.085416
      dxz     :     0.024496
      dyz     :     0.020178
      dx2y2   :     0.009051
      dxy     :     0.007200
      f0      :     0.001576  f :     0.009673
      f+1     :     0.002472
      f-1     :     0.001803
      f+2     :     0.001494
      f-2     :     0.001742
      f+3     :     0.000308
      f-3     :     0.000277

  2 C s       :     2.712430  s :     2.712430
      pz      :     0.862910  p :     2.868921
      px      :     0.968985
      py      :     1.037026
      dz2     :     0.034441  d :     0.506161
      dxz     :     0.056128
      dyz     :     0.077466
      dx2y2   :     0.181644
      dxy     :     0.156482
      f0      :     0.003841  f :     0.056179
      f+1     :     0.004607
      f-1     :     0.004163
      f+2     :     0.004787
      f-2     :     0.007029
      f+3     :     0.012867
      f-3     :     0.018884

  3 C s       :     2.715189  s :     2.715189
      pz      :     0.846443  p :     2.842997
      px      :     1.012470
      py      :     0.984084
      dz2     :     0.026704  d :     0.393344
      dxz     :     0.070054
      dyz     :     0.023028
      dx2y2   :     0.137227
      dxy     :     0.136330
      f0      :     0.002370  f :     0.043499
      f+1     :     0.003854
      f-1     :     0.003293
      f+2     :     0.004333
      f-2     :     0.005431
      f+3     :     0.010169
      f-3     :     0.014048

  4 C s       :     2.716041  s :     2.716041
      pz      :     0.835790  p :     2.845739
      px      :     1.016674
      py      :     0.993275
      dz2     :     0.026648  d :     0.389093
      dxz     :     0.050975
      dyz     :     0.039810
      dx2y2   :     0.109620
      dxy     :     0.162041
      f0      :     0.002437  f :     0.043772
      f+1     :     0.003704
      f-1     :     0.003514
      f+2     :     0.007311
      f-2     :     0.002405
      f+3     :     0.010223
      f-3     :     0.014179

  5 C s       :     2.839166  s :     2.839166
      pz      :     0.935248  p :     3.012849
      px      :     1.024784
      py      :     1.052816
      dz2     :     0.159946  d :     0.656919
      dxz     :     0.178049
      dyz     :     0.107781
      dx2y2   :     0.125961
      dxy     :     0.085182
      f0      :     0.010104  f :     0.060206
      f+1     :     0.010326
      f-1     :     0.008413
      f+2     :     0.008527
      f-2     :     0.010018
      f+3     :     0.005761
      f-3     :     0.007056

  6 C s       :     2.721023  s :     2.721023
      pz      :     0.845510  p :     2.853724
      px      :     1.004453
      py      :     1.003761
      dz2     :     0.025356  d :     0.389464
      dxz     :     0.051149
      dyz     :     0.038760
      dx2y2   :     0.112298
      dxy     :     0.161901
      f0      :     0.002361  f :     0.043121
      f+1     :     0.003607
      f-1     :     0.003479
      f+2     :     0.007167
      f-2     :     0.002201
      f+3     :     0.010128
      f-3     :     0.014179

  7 C s       :     2.720865  s :     2.720865
      pz      :     0.841934  p :     2.850598
      px      :     1.017694
      py      :     0.990969
      dz2     :     0.025327  d :     0.390143
      dxz     :     0.067054
      dyz     :     0.022410
      dx2y2   :     0.141162
      dxy     :     0.134189
      f0      :     0.002349  f :     0.043173
      f+1     :     0.003818
      f-1     :     0.003254
      f+2     :     0.004389
      f-2     :     0.004957
      f+3     :     0.010182
      f-3     :     0.014226

  8 C s       :     2.722241  s :     2.722241
      pz      :     0.837139  p :     2.848617
      px      :     0.988399
      py      :     1.023079
      dz2     :     0.025521  d :     0.390072
      dxz     :     0.017023
      dyz     :     0.072620
      dx2y2   :     0.159140
      dxy     :     0.115769
      f0      :     0.002346  f :     0.043097
      f+1     :     0.003200
      f-1     :     0.003844
      f+2     :     0.002557
      f-2     :     0.006801
      f+3     :     0.010121
      f-3     :     0.014227

  9 H s       :     0.802411  s :     0.802411
      pz      :     0.042337  p :     0.148821
      px      :     0.038701
      py      :     0.067783
      dz2     :     0.002692  d :     0.029098
      dxz     :     0.001043
      dyz     :     0.007370
      dx2y2   :     0.009073
      dxy     :     0.008920

 10 H s       :     0.799923  s :     0.799923
      pz      :     0.040126  p :     0.148065
      px      :     0.050835
      py      :     0.057104
      dz2     :     0.002738  d :     0.029195
      dxz     :     0.003511
      dyz     :     0.004906
      dx2y2   :     0.009332
      dxy     :     0.008709

 11 H s       :     0.816610  s :     0.816610
      pz      :     0.035443  p :     0.159198
      px      :     0.036503
      py      :     0.087252
      dz2     :     0.003413  d :     0.032097
      dxz     :     0.000248
      dyz     :     0.008199
      dx2y2   :     0.010524
      dxy     :     0.009713

 12 H s       :     0.804318  s :     0.804318
      pz      :     0.041452  p :     0.147883
      px      :     0.049233
      py      :     0.057197
      dz2     :     0.002682  d :     0.028894
      dxz     :     0.003308
      dyz     :     0.005008
      dx2y2   :     0.009224
      dxy     :     0.008673

 13 H s       :     0.803878  s :     0.803878
      pz      :     0.040952  p :     0.147426
      px      :     0.038641
      py      :     0.067834
      dz2     :     0.002682  d :     0.028873
      dxz     :     0.001053
      dyz     :     0.007205
      dx2y2   :     0.008936
      dxy     :     0.008998

 14 H s       :     0.804882  s :     0.804882
      pz      :     0.040795  p :     0.147465
      px      :     0.071399
      py      :     0.035271
      dz2     :     0.002680  d :     0.028795
      dxz     :     0.007928
      dyz     :     0.000268
      dx2y2   :     0.008726
      dxy     :     0.009193



                      *****************************
                      * MAYER POPULATION ANALYSIS *
                      *****************************

  NA   - Mulliken gross atomic population
  ZA   - Total nuclear charge
  QA   - Mulliken gross atomic charge
  VA   - Mayer's total valence
  BVA  - Mayer's bonded valence
  FA   - Mayer's free valence

  ATOM       NA         ZA         QA         VA         BVA        FA
  0 Cl    17.1255    17.0000    -0.1255     1.1662     1.1662    -0.0000
  1 Cl    17.1255    17.0000    -0.1255     1.1662     1.1662    -0.0000
  2 C      5.9539     6.0000     0.0461     3.6714     3.6714    -0.0000
  3 C      6.1260     6.0000    -0.1260     3.9325     3.9325     0.0000
  4 C      6.1629     6.0000    -0.1629     4.0018     4.0018    -0.0000
  5 C      5.9562     6.0000     0.0438     4.1757     4.1757     0.0000
  6 C      6.1292     6.0000    -0.1292     3.9611     3.9611    -0.0000
  7 C      6.1158     6.0000    -0.1158     3.9350     3.9350    -0.0000
  8 C      6.1349     6.0000    -0.1349     3.9701     3.9701    -0.0000
  9 H      0.8745     1.0000     0.1255     1.0054     1.0054     0.0000
 10 H      0.8669     1.0000     0.1331     1.0270     1.0270    -0.0000
 11 H      0.8475     1.0000     0.1525     1.0030     1.0030     0.0000
 12 H      0.8615     1.0000     0.1385     0.9963     0.9963    -0.0000
 13 H      0.8594     1.0000     0.1406     0.9950     0.9950     0.0000
 14 H      0.8603     1.0000     0.1397     0.9948     0.9948    -0.0000

  Mayer bond orders larger than 0.100000
B(  0-Cl,  5-C ) :   1.0864 B(  1-Cl,  5-C ) :   1.0864 B(  2-C ,  3-C ) :   1.3558 
B(  2-C ,  4-C ) :   1.3526 B(  2-C ,  5-C ) :   0.9842 B(  3-C ,  6-C ) :   1.4385 
B(  3-C ,  9-H ) :   0.9517 B(  4-C ,  7-C ) :   1.4694 B(  4-C , 10-H ) :   0.9428 
B(  5-C , 11-H ) :   0.9860 B(  6-C ,  8-C ) :   1.4475 B(  6-C , 12-H ) :   0.9564 
B(  7-C ,  8-C ) :   1.4093 B(  7-C , 13-H ) :   0.9548 B(  8-C , 14-H ) :   0.9534 


-------
TIMINGS
-------

Total SCF time: 0 days 0 hours 0 min 58 sec 

Total time                  ....      58.396 sec
Sum of individual times     ....      58.394 sec  (100.0%)

SCF preparation             ....       0.044 sec  (  0.1%)
Fock matrix formation       ....      58.172 sec  ( 99.6%)
  Startup                   ....       0.003 sec  (  0.0% of F)
  Split-RI-J                ....       2.810 sec  (  4.8% of F)
  Chain of spheres X        ....      49.061 sec  ( 84.3% of F)
  XC integration            ....       6.248 sec  ( 10.7% of F)
    Basis function eval.    ....       1.714 sec  ( 27.4% of XC)
    Density eval.           ....       1.085 sec  ( 17.4% of XC)
    XC-Functional eval.     ....       0.092 sec  (  1.5% of XC)
    XC-Potential eval.      ....       3.214 sec  ( 51.4% of XC)
Diagonalization             ....       0.000 sec  (  0.0%)
Density matrix formation    ....       0.014 sec  (  0.0%)
Total Energy calculation    ....       0.004 sec  (  0.0%)
Population analysis         ....       0.008 sec  (  0.0%)
Orbital Transformation      ....       0.023 sec  (  0.0%)
Orbital Orthonormalization  ....       0.000 sec  (  0.0%)
DIIS solution               ....       0.105 sec  (  0.2%)
SOSCF solution              ....       0.024 sec  (  0.0%)
Finished LeanSCF after  58.4 sec

Maximum memory used throughout the entire LEANSCF-calculation: 49.9 MB

-------------------------   --------------------
FINAL SINGLE POINT ENERGY     -1190.605945518381
-------------------------   --------------------

------------------------------------------------------------------------------
                            ORCA SCF RESPONSE CALCULATION
------------------------------------------------------------------------------

GBWName                                 ... benzal_chloride_b3lyp_def2tzvpp_pol.gbw
Number of atoms                         ...     15
Number of basis functions               ...    385
Max core memory                         ...  10000 MB

Electric field perturbation             ... YES
Quadrupolar field perturbation          ...  NO
Magnetic field perturbation (no GIAO)   ...  NO
Magnetic field perturbation (with GIAO) ...  NO
Linear momentum (velocity) perturbation ...  NO
Spin-orbit coupling perturbation        ...  NO
Choice of electric origin               ... Center of mass
Position of electric origin             ...     1.323741    -0.075804    -0.000014
Choice of magnetic origin               ... GIAO
Position of magnetic origin             ...     0.000000     0.000000     0.000000
Nuclear geometric perturbations         ...  NO (  45 perturbations)
Nucleus-orbit perturbations             ...  NO (   0 perturbations)
Spin-dipole/Fermi contact perturbations ...  NO (   0 perturbations)

Total number of real perturbations      ...      3
Total number of imaginary perturbations ...      0
Total number of triplet perturbations   ...      0
Total number of SOC perturbations       ...      0


                                **********************
                                * REAL PERTURBATIONS *
                                **********************



-------------------
SHARK CP-SCF DRIVER
-------------------

Dimension of the orbital basis          ...    385
Dimension of the CPSCF-problem          ...  14104
Number of operators                     ...      1
Max. number of iterations               ...    128
Convergence Tolerance                   ... 1.0e-03
Number of perturbations                 ...      3
Perturbation type                       ... REAL

----------------------------
POPLE LINEAR EQUATION SOLVER
----------------------------

  ITERATION   0:   ||err||_max =   1.4450e+01 (   3.9 sec   0/  3 done)
  ITERATION   1:   ||err||_max =   1.0524e+00 (   3.7 sec   0/  3 done)
  ITERATION   2:   ||err||_max =   3.2272e-01 (   3.7 sec   0/  3 done)
  ITERATION   3:   ||err||_max =   9.4679e-02 (   3.8 sec   0/  3 done)
  ITERATION   4:   ||err||_max =   2.6504e-02 (   3.8 sec   0/  3 done)
  ITERATION   5:   ||err||_max =   1.0780e-02 (   3.8 sec   0/  3 done)
  ITERATION   6:   ||err||_max =   3.6144e-03 (   3.8 sec   1/  3 done)
  ITERATION   7:   ||err||_max =   1.1170e-03 (   3.3 sec   2/  3 done)
  ITERATION   8:   ||err||_max =   3.0991e-04 (   2.8 sec   3/  3 done)

CP-SCF equations solved in  32.7 sec
Response densities calculated in   0.0 sec

Maximum memory used throughout the entire SCFRESP-calculation: 59.8 MB

------------------------------------------------------------------------------
                              ORCA PROPERTY CALCULATIONS
------------------------------------------------------------------------------

GBWName                                 ... benzal_chloride_b3lyp_def2tzvpp_pol.gbw
Number of atoms                         ...     15
Number of basis functions               ...    385
Max core memory                         ...  10000 MB

Electric properties:
Dipole moment                           ... YES
Quadrupole moment                       ...  NO
Static polarizability (Dipole/Dipole)   ... YES
Static polarizability (Dipole/Quad.)    ...  NO
Static polarizability (Quad./Quad.)     ...  NO
Static polarizability (Velocity)        ...  NO

Atomic electric properties:
Dipole moment                           ...  NO
Quadrupole moment                       ...  NO
Static polarizability                   ...  NO

Choice of electric origin               ... Center of mass
Position of electric origin             ...     1.323741    -0.075804    -0.000014

General magnetic properties:
Magnetizability                         ...  NO

EPR properties:
g-Tensor (aka g-matrix)                 ...  NO
Zero-Field splitting spin-orbit         ...  NO
Zero-field splitting spin-spin          ...  NO
Hyperfine couplings                     ...  NO (   0 nuclei)
Quadrupole couplings                    ...  NO (   0 nuclei)
Contact density                         ...  NO (   0 nuclei)

NMR properties:
Chemical shifts                         ...  NO (   0 nuclei)
Spin-rotation constants                 ...  NO (   0 nuclei)
Spin-spin couplings                     ...  NO (   0 nuclei,    0 pairs)

Choice of magnetic origin               ... GIAO
Position of magnetic origin             ...     0.000000     0.000000     0.000000

Properties with geometric perturbations:
SCF Hessian                             ...  NO
IR spectrum                             ...  NO
VCD spectrum                            ...  NO
X-ray spectroscopy properties:
SCF XES/XAS/RIXS spectra                ...  NO


-------------
DIPOLE MOMENT
-------------

Method             : SCF
Type of density    : Electron Density
Multiplicity       :   1
Irrep              :   0
Energy             : -1190.6059455183813043 Eh
Relativity type    : 
Basis              : AO
                                X                 Y                 Z
Electronic contribution:     13.777068643      -1.185767527      -0.000698339
Nuclear contribution   :    -14.650064953       1.511615700       0.000934350
                        -----------------------------------------
Total Dipole Moment    :     -0.872996310       0.325848173       0.000236011
                        -----------------------------------------
Magnitude (a.u.)       :      0.931825974
Magnitude (Debye)      :      2.368513397



--------------------
Rotational spectrum 
--------------------
 
Rotational constants in cm-1:             0.067714             0.024191             0.022283 
Rotational constants in MHz :          2030.014517           725.234984           668.020482 

Dipole components along the rotational axes: 
x,y,z [a.u.] :    -0.879245     0.000029     0.308589 
x,y,z [Debye]:    -2.234864     0.000074     0.784370 

 

Dipole moment calculation done in   0.0 sec 


---------------------------------------------------
STATIC POLARIZABILITY TENSOR (Dipole/Dipole)
---------------------------------------------------

Method             : SCF
Type of density    : Electron Density
Type of derivative : Electric Field (Direction=X)
Multiplicity       :   1
Irrep              :   0
Relativity type    : 
Basis              : AO

The raw cartesian tensor (atomic units):
     132.842028851        -1.854948137         0.000315944  
      -1.854948137        98.533145964         0.008635983  
       0.000315944         0.008635983        81.749074699  
diagonalized tensor: 
      81.749070224        98.433152053       132.942027238  

Orientation: 
      -0.000024964         0.053830824        -0.998550070  
      -0.000517293         0.998549936         0.053830829  
       0.999999866         0.000517887         0.000002918  

Isotropic polarizability : 104.37475


Polarizability tensor calculation done in   0.0 sec 

Maximum memory used throughout the entire PROP-calculation: 34.0 MB

--------------------------------
SUGGESTED CITATIONS FOR THIS RUN
--------------------------------

Below you find a list of papers that are relevant to this ORCA run
We neither can nor want to force you to cite these papers, but we appreciate if you do
You receive ORCA, which is the product of decades of hard work by many enthusiastic individuals, for free
The only thing we kindly ask in return is that you cite our papers,
We deeply appreciate it, if you show your appreciation for ORCA by not just citing the generic ORCA reference.

Please note that relegating all ORCA citations to the supporting information does *not* help us.
SI sections are not indexed - citations you put there will not count into any citation statistics
But we need these citations in order to attract the funding resources that allow us to do what we are doing

Therefore, if you are a happy ORCA user, please consider citing a few of the papers listed below in the main body of your paper

In addition to the list printed below, the program has created the file benzal_chloride_b3lyp_def2tzvpp_pol.bibtex that contains the list in bibtex format
You can import this file easily into all common literature databanks and citation aid programs


List of essential papers. We consider these as the minimum necessary citations

  1. Neese,F.
     Software update: the ORCA program system, version 5.0
     WIRES Comput. Molec. Sci., 2022 12(1)e1606
     doi.org/10.1002/wcms.1606

List of papers to cite with high priority. The work reported in these papers was absolutely
necessary for this run to complete.
Our perspective: the developers of density functionals and basis sets usually get cited in chemistry papers
Good! But without the algorithms to do something with them, the functionals or basis sets would not do anything.
Hence, in our opinion, the algorithm design and method developments papers are equally worthy of getting cited

  1. Neese,F.
     An improvement of the resolution of the identity approximation for the formation of the Coulomb matrix
     J. Comp. Chem., 2003 24(14)1740-1747
     doi.org/10.1002/jcc.10318
  2. Neese,F.; Wennmohs,F.; Hansen,A.; Becker,U.
     Efficient, approximate and parallel Hartree-Fock and hybrid DFT calculations. A 'chain-of-spheres' algorithm for the Hartree-Fock exchange
     Chem. Phys., 2009 356(1-3)98-109
     doi.org/10.1016/j.chemphys.2008.10.036
  3. Helmich-Paris,B.; de Souza,B.; Neese,F.; Izsák,R.
     An improved chain of spheres for exchange algorithm
     J. Chem. Phys., 2021 155 104109
     doi.org/doi: 10.1063/5.0058766.
  4. Neese,F.
     The SHARK Integral Generation and Digestion System
     J. Comp. Chem., 2022  1-16
     doi.org/10.1002/jcc.26942

List of suggested additional citations. These are papers that are important in the 'surrounding' of 
of this run, or papers that preceded the highly important papers. If you like your results we are grateful for a citation.

  1. Izsak,R.; Neese,F.
     An overlap fitted chain of spheres exchange method
     J. Chem. Phys., 2011 135 144105
     doi.org/10.1063/1.3646921
  2. Izsak,R.; Hansen,A.; Neese,F.
     The resolution of identity and chain of spheres approximations for the LPNO-CCSD singles Fock term
     Molec. Phys., 2012 110 2413-2417
     doi.org/10.1080/00268976.2012.687466
  3. Neese,F.
     The ORCA program system
     WIRES Comput. Molec. Sci., 2012 2(1)73-78
     doi.org/10.1002/wcms.81
  4. Izsak,R.; Neese,F.; Klopper,W.
     Robust fitting techniques in the chain of spheres approximation to the Fock exchange: The role of the complementary space
     J. Chem. Phys., 2013 139 
     doi.org/10.1063/1.4819264
  5. Neese,F.
     Software update: the ORCA program system, version 4.0
     WIRES Comput. Molec. Sci., 2018 8(1)1-6
     doi.org/10.1002/wcms.1327
  6. Neese,F.; Wennmohs,F.; Becker,U.; Riplinger,C.
     The ORCA quantum chemistry program package
     J. Chem. Phys., 2020 152 Art. No. L224108
     doi.org/10.1063/5.0004608

List of optional additional citations

  1. Neese,F.
     Approximate second-order SCF convergence for spin unrestricted wavefunctions
     Chem. Phys. Lett., 2000 325(1-3)93-98
     doi.org/10.1016/s0009-2614(00)00662-x

Timings for individual modules:

Sum of individual times          ...       94.099 sec (=   1.568 min)
Startup calculation              ...        1.062 sec (=   0.018 min)   1.1 %
SCF iterations                   ...       59.154 sec (=   0.986 min)  62.9 %
SCF Response                     ...       33.232 sec (=   0.554 min)  35.3 %
Property calculations            ...        0.650 sec (=   0.011 min)   0.7 %
                             ****ORCA TERMINATED NORMALLY****
TOTAL RUN TIME: 0 days 0 hours 1 minutes 34 seconds 356 msec
