
                                 *****************
                                 * O   R   C   A *
                                 *****************

                                            #,                                       
                                            ###                                      
                                            ####                                     
                                            #####                                    
                                            ######                                   
                                           ########,                                 
                                     ,,################,,,,,                         
                               ,,#################################,,                 
                          ,,##########################################,,             
                       ,#########################################, ''#####,          
                    ,#############################################,,   '####,        
                  ,##################################################,,,,####,       
                ,###########''''           ''''###############################       
              ,#####''   ,,,,##########,,,,          '''####'''          '####       
            ,##' ,,,,###########################,,,                        '##       
           ' ,,###''''                  '''############,,,                           
         ,,##''                                '''############,,,,        ,,,,,,###''
      ,#''                                            '''#######################'''  
     '                                                          ''''####''''         
             ,#######,   #######,   ,#######,      ##                                
            ,#'     '#,  ##    ##  ,#'     '#,    #''#        ,####,   ,####,        
            ##       ##  ##   ,#'  ##            #'  '#       #'       #'  '#        
            ##       ##  #######   ##           ,######,      #####,   #    #        
            '#,     ,#'  ##    ##  '#,     ,#' ,#      #,     #,   #   #,  ,#        
             '#######'   ##     ##  '#######'  #'      '#     '####' # '####'        



                #########################################################
                #                        -***-                          #
                #          Department of theory and spectroscopy        #
                #                                                       #
                #                      Frank Neese                      #
                #                                                       #
                #     Directorship, Architecture, Infrastructure        #
                #                    SHARK, DRIVERS                     #
                #        Core code/Algorithms in most modules           #
                #                                                       #
                #        Max Planck Institute fuer Kohlenforschung      #
                #                Kaiser Wilhelm Platz 1                 #
                #                 D-45470 Muelheim/Ruhr                 #
                #                      Germany                          #
                #                                                       #
                #                  All rights reserved                  #
                #                        -***-                          #
                #########################################################


                         Program Version 6.0.1  -  RELEASE   -


 With contributions from (in alphabetic order):
[Max-Planck-Institut fuer Kohlenforschung]                               
  Daniel Aravena         : Magnetic Suceptibility                        
  Michael Atanasov       : Ab Initio Ligand Field Theory (pilot matlab implementation)
  Alexander A. Auer      : GIAO ZORA, VPT2 properties, NMR spectrum      
  Ute Becker             : All parallelization in ORCA, NUMFREQ, NUMCALC 
  Giovanni Bistoni       : ED, misc. LED, open-shell LED, HFLD           
  Martin Brehm           : Molecular dynamics                            
  Dmytro Bykov           : pre 5.0 version of the SCF Hessian            
  Marcos Casanova-Páez   : Triplet and SCS-CIS(D). UHF-(DLPNO)-IP/EA/STEOM-CCSD. UHF-CVS-IP/STEOM-CCSD   
  Vijay G. Chilkuri      : MRCI spin determinant printing, contributions to CSF-ICE 
  Pauline Colinet        : FMM embedding                                 
  Dipayan Datta          : RHF DLPNO-CCSD density                        
  Achintya Kumar Dutta   : EOM-CC, STEOM-CC                              
  Nicolas Foglia         : Exact transition moments, OPA infrastructure, MCD improvements    
  Dmitry Ganyushin       : Spin-Orbit,Spin-Spin,Magnetic field MRCI      
  Miquel Garcia-Rates    : C-PCM and meta-GGA Hessian, CCSD/C-PCM, Gaussian charge scheme 
  Tiago L. C. Gouveia    : GS-ROHF, GS-ROCIS                             
  Yang Guo               : DLPNO-NEVPT2, F12-NEVPT2, CIM, IAO-localization        
  Andreas Hansen         : Spin unrestricted coupled pair/coupled cluster methods 
  Ingolf Harden          : AUTO-CI MPn and infrastructure                
  Benjamin Helmich-Paris : MC-RPA, TRAH-(SCF,CASSCF), AVAS, COSX integrals, SCF dyn. polar. 
  Lee Huntington         : MR-EOM, pCC                                   
  Robert Izsak           : Overlap fitted RIJCOSX, COSX-SCS-MP3, EOM     
  Riya Kayal             : Wick's Theorem for AUTO-CI, AUTO-CI UHF-CCSDT 
  Emily Kempfer          : AUTO-CI, RHF CISDT and CCSDT                  
  Christian Kollmar      : KDIIS, OOCD, Brueckner-CCSD(T), CCSD density, CASPT2, CASPT2-K, improved NEVPT2 
  Axel Koslowski         : Symmetry handling                             
  Simone Kossmann        : meta-GGA functionals, TD-DFT gradient, OOMP2, (MP2 Hessian; deprecated post 5.0) 
  Lucas Lang             : DCDCAS                                        
  Marvin Lechner         : AUTO-CI (C++ implementation), FIC-MRCC        
  Spencer Leger          : CASSCF response                               
  Dagmar Lenk            : GEPOL surface, SMD, ORCA-2-JSON               
  Dimitrios Liakos       : Extrapolation schemes; Compound Job, initial MDCI parallelization 
  Dimitrios Manganas     : Further ROCIS development; embedding schemes. LFT, Crystal Embedding 
  Dimitrios Pantazis     : SARC Basis sets                               
  Anastasios Papadopoulos: AUTO-CI, single reference methods and gradients 
  Taras Petrenko         : pre 6.0 DFT Hessian and TD-DFT gradient, (ASA, deprecated), ECA, 1-Electron XAS/XES, NRVS 
  Peter Pinski           : DLPNO-MP2, DLPNO-MP2 Gradient                 
  Christoph Reimann      : Effective Core Potentials                     
  Marius Retegan         : Local ZFS, SOC                                
  Christoph Riplinger    : Optimizer, TS searches, QM/MM, DLPNO-CCSD(T), (RO)-DLPNO pert. Triples 
  Michael Roemelt        : Original ROCIS implementation                 
  Masaaki Saitow         : Open-shell DLPNO-CCSD energy and density      
  Barbara Sandhoefer     : DKH picture change effects                    
  Kantharuban Sivalingam : CASSCF convergence/infrastructure, NEVPT2 and variants, FIC-MRCI 
  Bernardo de Souza      : ESD, SOC TD-DFT                               
  Georgi L. Stoychev     : AutoAux, RI-MP2 NMR, DLPNO-MP2 response, X2C  
  Van Anh Tran           : RI-MP2 g-tensors                              
  Willem Van den Heuvel  : Paramagnetic NMR                              
  Zikuan Wang            : NOTCH, Electric field optimization            
  Frank Wennmohs         : Technical directorship and infrastructure     
  Hang Xu                : AUTO-CI-Response properties                   
                                                                         
[FACCTs GmbH]                                                            
  Markus Bursch, Miquel Garcia-Rates, Christoph Riplinger, Bernardo de Souza, Georgi L. Stoychev 
                                                                 
  APM, Basis sets (HGBS, AHGBS, def-TZVP (Ac-Lr), def2-XVPD (La-Lu)), CI-OPT, improved COSX, DLPNO-Multilevel,           
  DOCKER, DRACO, updates on ESD, GOAT, IRC, LR-CPCM, MBIS, meta-GGA TD-DFT gradient, ML-optimized integration grids, 
  MM, NACMEs, nearIR, NEB, NEB-TS, NL-DFT gradient (VV10), 2- and 3-layer-ONIOM, interface openCOSMO-RS, QMMM,   
  Crystal-QMMM, SF, symmetry and pop. for TD-DFT, r2SCAN hybrids, SOLVATOR                                   
                                                                         
[Other institutions]                                                     
  V. Asgeirsson          : NEB                                           
  Christoph Bannwarth    : sTDA-DFT, sTD-DFT, PBEh-3c, B97-3c, D3        
  Sebastian Ehlert       : rSCAN, r2SCAN, r2SCAN-3c, D4, dhf basis sets  
  Marvin Friede          : D4 for Fr, Ra, Ac-Lr                          
  Lars Goerigk           : TD-DFT with DH, B97 family of functionals     
  Stefan Grimme          : VdW corrections, initial TS optimization, DFT functionals, gCP, sTDA/sTD-DF 
  Waldemar Hujo          : DFT-NL                                        
  H. Jonsson             : NEB                                           
  Holger Kruse           : gCP                                           
  Marcel Mueller         : wB97X-3c, vDZP basis set                      
  Hagen Neugebauer       : wr2SCAN                                       
  Tobias Risthaus        : range-separated hybrid DFT                    
  Lukas Wittmann         : regularized MP2, r2SCAN double-hybrids, wr2SCAN        
                                                                         
We gratefully acknowledge several colleagues who have allowed us to      
interface, adapt or use parts of their codes:                            
  Ed Valeev, F. Pavosevic, A. Kumar             : LibInt (2-el integral package), F12 methods 
  Garnet Chan, S. Sharma, J. Yang, R. Olivares  : DMRG                   
  Ulf Ekstrom                                   : XCFun DFT Library      
  Mihaly Kallay                                 : mrcc  (arbitrary order and MRCC methods)
  Frank Weinhold                                : gennbo (NPA and NBO analysis)           
  Simon Mueller                                 : openCOSMO-RS                            
  Christopher J. Cramer and Donald G. Truhlar   : smd solvation model                     
  S Lehtola, MJT Oliveira, MAL Marques          : LibXC Library                           
  Liviu Ungur et al                             : ANISO software                          


 Your calculation uses the libint2 library for the computation of 2-el integrals
 For citations please refer to: http://libint.valeyev.net

 Your ORCA version has been built with support for libXC version: 6.2.2
 For citations please refer to: https://libxc.gitlab.io

 This ORCA versions uses:
   CBLAS   interface :  Fast vector & matrix operations
   LAPACKE interface :  Fast linear algebra routines
   SCALAPACK package :  Parallel linear algebra routines
   Shared memory     :  Shared parallel matrices


NOTE: MaxCore=100000 MB was set to SCF,MP2,MDCI,CIPSI,MRCI and CIS
      => If you want to overwrite this, your respective input block should be placed after the MaxCore statement
================================================================================

----- Orbital basis set information -----
Your calculation utilizes the basis: DKH-def2-TZVP
   Exponents from def2-TZVP [F. Weigend and R. Ahlrichs, Phys. Chem. Chem. Phys. 7, 3297 (2005)],
   recontracted for DKH2 by D. A. Pantazis.

The basis set includes element-specific modifications.

Your calculation utilizes the basis: old-DKH-TZVP 
   as implemented in previous versions of ORCA 

The basis set includes element-specific modifications.


                    <<< All basis sets will be decontracted >>>

================================================================================
                                        WARNINGS
                       Please study these warnings very carefully!
================================================================================


WARNING: Nuclear properties are sensitive to picture change effects!
  ===> : To get the full correction, set %rel PictureChange = 2

================================================================================
                                       INPUT FILE
================================================================================
NAME = s2cl2_rks_def2tzvpp_efg.inp
|  1> ! RKS NORI TPSS DKH2 DKH-def2-TZVP Decontract VERYTIGHTSCF SlowConv
|  2> 
|  3> %MaxCore 100000
|  4> 
|  5> %basis newgto S "old-DKH-TZVP" end
|  6> end
|  7> 
|  8> %basis newgto Cl "old-DKH-TZVP" end
|  9> end
| 10> 
| 11> %method
| 12>   SpecialGridAtoms 17
| 13>   SpecialGridAtoms 16
| 14>   SpecialGridIntAcc 7
| 15> end
| 16> 
| 17> * xyz 0 1
| 18>   S   0.62343451524828      0.74851460771596      0.74188708659932
| 19>   S   -0.62343451520743     -0.74851460764339      0.74188708650493
| 20>   Cl  -0.00338636809538      2.07205754892655     -0.69808708654412
| 21>   Cl  0.00338636805452     -2.07205754899912     -0.69808708656014
| 22> *
| 23> 
| 24> %eprnmr nuclei = all {fgrad}
| 25> end
| 26> 
| 27> %rel PictureChange true
| 28> endd                         ****END OF INPUT****
================================================================================

                       ****************************
                       * Single Point Calculation *
                       ****************************

---------------------------------
CARTESIAN COORDINATES (ANGSTROEM)
---------------------------------
  S      0.623435    0.748515    0.741887
  S     -0.623435   -0.748515    0.741887
  Cl    -0.003386    2.072058   -0.698087
  Cl     0.003386   -2.072058   -0.698087

----------------------------
CARTESIAN COORDINATES (A.U.)
----------------------------
  NO LB      ZA    FRAG     MASS         X           Y           Z
   0 S    16.0000    0    32.060    1.178120    1.414488    1.401963
   1 S    16.0000    0    32.060   -1.178120   -1.414488    1.401963
   2 Cl   17.0000    0    35.453   -0.006399    3.915621   -1.319193
   3 Cl   17.0000    0    35.453    0.006399   -3.915621   -1.319193

--------------------------------
INTERNAL COORDINATES (ANGSTROEM)
--------------------------------
 S      0   0   0     0.000000000000     0.00000000     0.00000000
 S      1   0   0     1.948275866182     0.00000000     0.00000000
 Cl     1   2   0     2.053824714123   107.44850363     0.00000000
 Cl     2   1   3     2.053824714137   107.44850364    85.39654754

---------------------------
INTERNAL COORDINATES (A.U.)
---------------------------
 S      0   0   0     0.000000000000     0.00000000     0.00000000
 S      1   0   0     3.681707820413     0.00000000     0.00000000
 Cl     1   2   0     3.881166236772   107.44850363     0.00000000
 Cl     2   1   3     3.881166236798   107.44850364    85.39654754

---------------------
BASIS SET INFORMATION
---------------------
There are 2 groups of distinct atoms

 Group   1 Type S   : 14s9p1d contracted to 14s9p1d pattern {11111111111111/111111111/1}
 Group   2 Type Cl  : 14s9p1d contracted to 14s9p1d pattern {11111111111111/111111111/1}

Atom   0S    basis set group =>   1
Atom   1S    basis set group =>   1
Atom   2Cl   basis set group =>   2
Atom   3Cl   basis set group =>   2
------------------------------------------------------------------------------
                             ORCA STARTUP CALCULATIONS
------------------------------------------------------------------------------
------------------------------------------------------------------------------
                   ___                                                        
                  /   \      - P O W E R E D   B Y -                         
                 /     \                                                     
                 |  |  |   _    _      __       _____    __    __             
                 |  |  |  | |  | |    /  \     |  _  \  |  |  /  |          
                  \  \/   | |  | |   /    \    | | | |  |  | /  /          
                 / \  \   | |__| |  /  /\  \   | |_| |  |  |/  /          
                |  |  |   |  __  | /  /__\  \  |    /   |      \           
                |  |  |   | |  | | |   __   |  |    \   |  |\   \          
                \     /   | |  | | |  |  |  |  | |\  \  |  | \   \       
                 \___/    |_|  |_| |__|  |__|  |_| \__\ |__|  \__/        
                                                                              
                      - O R C A' S   B I G   F R I E N D -                    
                                      &                                       
                       - I N T E G R A L  F E E D E R -                       
                                                                              
 v1 FN, 2020, v2 2021, v3 2022-2024                                           
------------------------------------------------------------------------------


----------------------
SHARK INTEGRAL PACKAGE
----------------------

Number of atoms                             ...      4
Number of basis functions                   ...    184
Number of shells                            ...     96
Maximum angular momentum                    ...      2
Integral batch strategy                     ... SHARK/LIBINT Hybrid
RI-J (if used) integral strategy            ... SPLIT-RIJ (Revised 2003 algorithm where possible)
Printlevel                                  ...      1
Contraction scheme used                     ... SEGMENTED contraction
Prescreening option                         ... SCHWARTZ
   Thresh                                   ... 1.000e-12
   Tcut                                     ... 1.000e-14
   Tpresel                                  ... 1.000e-14 
Coulomb Range Separation                    ... NOT USED
Exchange Range Separation                   ... NOT USED
Multipole approximations                    ... NOT USED
Finite Nucleus Model                        ... NOT USED
CABS basis                                  ... NOT available
Auxiliary Coulomb fitting basis             ... NOT available
Auxiliary J/K fitting basis                 ... NOT available
Auxiliary Correlation fitting basis         ... NOT available
Auxiliary 'external' fitting basis          ... NOT available

Checking pre-screening integrals            ... done (  0.0 sec) Dimension = 96
Check shell pair data                       ... done (  0.0 sec)
Shell pair information
Shell pair cut-off parameter TPreSel        ...   1.0e-14
Total number of shell pairs                 ...      4656
Shell pairs after pre-screening             ...      2757
Total number of primitive shell pairs       ...      4656
Primitive shell pairs kept                  ...      2757
          la=0 lb=0:    794 shell pairs
          la=1 lb=0:   1166 shell pairs
          la=1 lb=1:    447 shell pairs
          la=2 lb=0:    204 shell pairs
          la=2 lb=1:    136 shell pairs
          la=2 lb=2:     10 shell pairs

Calculating one electron integrals          ... done (  0.0 sec)
Calculating Nuclear repulsion               ... done (  0.0 sec) ENN=    335.807500828679 Eh

Diagonalization of the overlap matrix:
Smallest eigenvalue                        ... 6.581e-05
Time for diagonalization                   ...    0.002 sec
Threshold for overlap eigenvalues          ... 1.000e-07
Number of eigenvalues below threshold      ... 0
Time for construction of square roots      ...    0.000 sec
Total time needed                          ...    0.003 sec

-------------------
DFT GRID GENERATION
-------------------

General Integration Accuracy     IntAcc      ... 4.388
Radial Grid Type                 RadialGrid  ... OptM3 with GC (2021)
Angular Grid (max. ang.)         AngularGrid ... 4 (Lebedev-302)
Angular grid pruning method      GridPruning ... 4 (adaptive)
Weight generation scheme         WeightScheme... mBecke (2022)
Basis function cutoff            BFCut       ... 1.0000e-12
Integration weight cutoff        WCut        ... 1.0000e-14
Partially contracted basis set               ... off
Rotationally invariant grid construction     ... off
Angular grids for H and He will be reduced by one unit
Core-polarized basis detected: some atoms will have their core
                               angular grid increased.
Steep s-basis detected: some atoms will have their radial
                        grid points doubled.

SpecialGrid => Setting IntAcc for atom type =  16 to   7.0000
SpecialGrid => Setting IntAcc for atom type =  16 to   7.0000
Total number of grid points                  ...    76566
Total number of batches                      ...     1200
Average number of points per batch           ...       63
Average number of grid points per atom       ...    19142
Initializing property integral containers    ... done (  0.0 sec)

SHARK setup successfully completed in   1.2 seconds

Maximum memory used throughout the entire STARTUP-calculation: 28.1 MB
------------------------------------------------------------------------------
                          ORCA RELATIVISTIC HAMILTONIAN
------------------------------------------------------------------------------

Relativistic Method            ... DKH
Order of DKH treatment         ...   2
Treatment of potential         ... V(e,N)
Eps parameter for DKH          ...   0.00000000010000
Nucleus model                  ... Point Nucleus
Speed of light used            ... 137.03598950000000


            ************************************************
            *        DOUGLAS-KROLL-HESS HAMILTONIAN        *
            *   Programmed by FN according to literature   *
            *        procedures. Special thanks to         *
            *       B.A. Hess, M. Reiher and A. Wolf       *
            *     University Erlangen-Nuernberg/Bonn       *
            ************************************************

Uncontracting the basis (first version)        ... done
Number of contracted basis functions           ...  184
Number of uncontracted basis functions         ...  184
Initializing the DKH file                      ... done
Calculating the relativistic integrals         ... done
Storing DKH matrices                           ... done
Computing the DKH transformation               ... done
Storing the transformation variables           ... done
Transforming V and pVp to p**2 space           ... done
First transformation of V and pVp              ... done
Second transformation of Veff                  ... done
Adding kinetic energy                          ... done
Back transformation of Veff to r-space         ... done
Recovering DKH matrices                        ... done
Recontracting the H-matrix (first version)     ... done
Computing the DKH correction to the H-matrix   ... done
Reading the original H-matrix                  ... done
Adding DKH correction to the H-matrix          ... done
Storing the new modified H-matrix              ... done

Maximum memory used throughout the entire REL-calculation: 10.1 MB
-------------------------------------------------------------------------------
                                 ORCA GUESS
                   Start orbitals & Density for SCF / CASSCF
-------------------------------------------------------------------------------

------------
SCF SETTINGS
------------
Hamiltonian:
 Density Functional     Method          .... DFT(GTOs)
 Exchange Functional    Exchange        .... TPSS
 Correlation Functional Correlation     .... TPSS
 LDA part of GGA corr.  LDAOpt          .... PW91-LDA
 Gradients option       PostSCFGGA      .... off
   NL short-range parameter             ....  5.000000

Relativistic Settings:
 Scalar relativistic method             .... Douglas-Kroll-Hess
 Order of DKH procedure    Order        ....    2
 Mode of DKH-treatment                  .... V=V(e,N)
 Speed of light used       Velit        ....       137.035989
 Cutoff-constant           Eps          ....            1e-10 


General Settings:
 Integral files         IntName         .... s2cl2_rks_def2tzvpp_efg
 Hartree-Fock type      HFTyp           .... RHF
 Total Charge           Charge          ....    0
 Multiplicity           Mult            ....    1
 Number of Electrons    NEL             ....   66
 Basis Dimension        Dim             ....  184
 Nuclear Repulsion      ENuc            ....    335.8075008287 Eh

Convergence Acceleration:
 AO-DIIS                CNVDIIS         .... on
   Start iteration      DIISMaxIt       ....     0
   Startup error        DIISStart       ....  0.200000
   # of expansion vecs  DIISMaxEq       ....     5
   Bias factor          DIISBfac        ....   1.050
   Max. coefficient     DIISMaxC        ....  10.000
 MO-DIIS                CNVKDIIS        .... off
 Trust-Rad. Augm. Hess. CNVTRAH         .... auto
   Auto Start mean grad. ratio tolernc. ....  1.125000
   Auto Start start iteration           ....    50
   Auto Start num. interpolation iter.  ....    10
   Max. Number of Micro iterations      ....    24
   Max. Number of Macro iterations      .... Maxiter - #DIIS iter
   Number of Davidson start vectors     ....     2
   Converg. threshold    (grad. norm)   ....   2.000e-06
   Grad. Scal. Fac. for Micro threshold ....   0.100
   Minimum threshold for Micro iter.    ....   1.000e-02
   NR start threshold (gradient norm)   ....   1.000e-04
   Initial trust radius                 ....   0.400
   Minimum AH scaling param. (alpha)    ....   1.000
   Maximum AH scaling param. (alpha)    .... 1000.000
   Quad. conv. algorithm                .... NR
   White noise on init. David. guess    .... on
   Maximum white noise                  ....   0.010
   Pseudo random numbers                .... off
   Inactive MOs                         .... canonical
   Orbital update algorithm             .... Taylor
   Preconditioner                       .... Diag
   Full preconditioner red. dimension   ....   250
 SOSCF                  CNVSOSCF        .... on
   Start iteration      SOSCFMaxIt      ....   150
   Startup grad/error   SOSCFStart      ....  0.001000
   Hessian update       SOSCFHessUp     .... L-BFGS
 Level Shifting         CNVShift        .... on
   Level shift para.    LevelShift      ....    0.2500
   Turn off err/grad.   ShiftErr        ....    0.0000
 Zerner damping         CNVZerner       .... off
 Static damping         CNVDamp         .... on
   Fraction old density DampFac         ....    0.8500
   Max. Damping (<1)    DampMax         ....    0.9800
   Min. Damping (>=0)   DampMin         ....    0.0000
   Turn off err/grad.   DampErr         ....    0.0300

SCF Procedure:
 Maximum # iterations   MaxIter         ....   125
 SCF integral mode      SCFMode         .... Direct
   Integral package                     .... SHARK and LIBINT hybrid scheme
 Reset frequency        DirectResetFreq ....    20
 Integral Threshold     Thresh          ....  1.000e-12 Eh
 Primitive CutOff       TCut            ....  1.000e-14 Eh

Convergence Tolerance:
 Convergence Check Mode ConvCheckMode   .... Total+1el-Energy
 Convergence forced     ConvForced      .... 0
 Energy Change          TolE            ....  1.000e-09 Eh
 1-El. energy change                    ....  1.000e-06 Eh
 Orbital Gradient       TolG            ....  2.000e-06
 Orbital Rotation angle TolX            ....  2.000e-06
 DIIS Error             TolErr          ....  1.000e-08

------------------------------
INITIAL GUESS: MODEL POTENTIAL
------------------------------
Loading DKH relativistic densities                 ... done
Calculating cut-offs                               ... done
Initializing the effective Hamiltonian             ... done
Setting up the integral package (SHARK)            ... done
Starting the Coulomb interaction                   ... done (   0.0 sec)
Making the grid                                    ... done (   0.1 sec)
Mapping shells                                     ... done
Starting the XC term evaluation                    ... done (   0.1 sec)
  promolecular density results
     # of electrons  =     66.000238365
     EX              =   -105.137730949
     EC              =     -2.584026733
     EX+EC           =   -107.721757683
Transforming the Hamiltonian                       ... done (   0.0 sec)
Diagonalizing the Hamiltonian                      ... done (   0.0 sec)
Back transforming the eigenvectors                 ... done (   0.0 sec)
Now organizing SCF variables                       ... done
                      ------------------
                      INITIAL GUESS DONE (   0.2 sec)
                      ------------------
             **** ENERGY FILE WAS UPDATED (s2cl2_rks_def2tzvpp_efg.en.tmp) ****
Finished Guess after   0.2 sec
Maximum memory used throughout the entire GUESS-calculation: 10.6 MB

-------------------------------------------------------------------------------------------
                                      ORCA LEAN-SCF
                              memory conserving SCF solver
-------------------------------------------------------------------------------------------

----------------------------------------D-I-I-S--------------------------------------------
Iteration    Energy (Eh)           Delta-E    RMSDP     MaxDP     DIISErr   Damp  Time(sec)
-------------------------------------------------------------------------------------------
               ***  Starting incremental Fock matrix formation  ***
    1    -1721.9055152745465875     0.00e+00  3.96e-04  1.35e-02  9.36e-01  0.850   0.9
    2    -1721.9108677940264442    -5.35e-03  3.96e-04  1.19e-02  7.96e-01  0.850   0.8
                               ***Turning on AO-DIIS***
    3    -1721.9142180139722313    -3.35e-03  1.66e-04  5.32e-03  6.78e-01  0.850   0.8
    4    -1721.9154926013268323    -1.27e-03  1.27e-04  3.95e-03  5.76e-01  0.850   0.8
    5    -1721.9164233452449935    -9.31e-04  1.11e-04  3.27e-03  4.90e-01  0.850   0.8
    6    -1721.9176596002150745    -1.24e-03  1.31e-04  4.26e-03  4.17e-01  0.850   0.8
    7    -1721.9189671351994093    -1.31e-03  1.19e-04  3.49e-03  3.54e-01  0.850   0.8
    8    -1721.9199982810894198    -1.03e-03  7.82e-05  1.91e-03  3.01e-01  0.850   0.8
    9    -1721.9207360335788053    -7.38e-04  5.78e-05  1.35e-03  2.56e-01  0.850   0.8
   10    -1721.9212944889793562    -5.58e-04  5.01e-05  1.37e-03  2.18e-01  0.850   0.7
   11    -1721.9217810977058889    -4.87e-04  4.91e-05  1.51e-03  1.85e-01  0.850   0.7
   12    -1721.9222154162046081    -4.34e-04  4.46e-05  1.32e-03  1.57e-01  0.850   0.8
   13    -1721.9225799910789192    -3.65e-04  3.49e-05  9.49e-04  1.34e-01  0.850   0.7
   14    -1721.9228761927354299    -2.96e-04  2.71e-05  6.90e-04  1.14e-01  0.850   0.8
   15    -1721.9231187921152468    -2.43e-04  2.28e-05  6.11e-04  9.66e-02  0.850   0.7
   16    -1721.9233229652907085    -2.04e-04  2.04e-05  5.91e-04  8.21e-02  0.850   0.7
   17    -1721.9234971200842210    -1.74e-04  1.81e-05  5.27e-04  6.98e-02  0.850   0.7
   18    -1721.9236445951166843    -1.47e-04  1.51e-05  4.21e-04  5.94e-02  0.850   0.7
   19    -1721.9237684792467462    -1.24e-04  1.23e-05  3.29e-04  5.05e-02  0.850   0.7
   20    -1721.9238725707875801    -1.04e-04  1.02e-05  2.76e-04  4.29e-02  0.850   0.7
               *** Restarting incremental Fock matrix formation ***
                             ****Resetting DIIS****
   21    -1721.9239604949441400    -8.79e-05  1.28e-05  4.20e-04  3.65e-02  0.850   0.9
   22    -1721.9240359794109736    -7.55e-05  8.58e-06  2.29e-04  3.10e-02  0.850   0.7
   23    -1721.9240991280664730    -6.31e-05  5.70e-06  1.50e-04  2.64e-02  0.850   0.7
   24    -1721.9241520611888063    -5.29e-05  3.11e-05  7.36e-04  2.25e-02  0.000   0.7
                              *** Initializing SOSCF ***
---------------------------------------S-O-S-C-F--------------------------------------
Iteration    Energy (Eh)           Delta-E    RMSDP     MaxDP     MaxGrad    Time(sec)
--------------------------------------------------------------------------------------
   25    -1721.9244516460478280    -3.00e-04  1.68e-05  5.26e-04  2.03e-04     0.7
               *** Restarting incremental Fock matrix formation ***
   26    -1721.9244516819096589    -3.59e-08  2.70e-05  6.64e-04  1.94e-04     0.9
   27    -1721.9244492498012278     2.43e-06  1.95e-05  4.55e-04  4.63e-04     0.7
   28    -1721.9244522784008495    -3.03e-06  1.02e-06  2.02e-05  9.38e-06     0.7
   29    -1721.9244522788019367    -4.01e-10  4.69e-07  1.06e-05  1.13e-05     0.6
                 **** Energy Check signals convergence ****

               *****************************************************
               *                     SUCCESS                       *
               *           SCF CONVERGED AFTER  29 CYCLES          *
               *****************************************************

             **** ENERGY FILE WAS UPDATED (s2cl2_rks_def2tzvpp_efg.en.tmp) ****

----------------
TOTAL SCF ENERGY
----------------

Total Energy       :      -1721.92445227880194 Eh          -46855.94646 eV

Components:
Nuclear Repulsion  :        335.80750082867900 Eh            9137.78665 eV
Electronic Energy  :      -2057.73195310748088 Eh          -55993.73311 eV
One Electron Energy:      -3046.30173216380990 Eh          -82894.08439 eV
Two Electron Energy:        988.56977905632903 Eh           26900.35128 eV

Virial components:
Potential Energy   :      -3472.68082537746295 Eh          -94496.44937 eV
Kinetic Energy     :       1750.75637309866102 Eh           47640.50291 eV
Virial Ratio       :          1.98353173447609

DFT components:
N(Alpha)           :       32.999920747384 electrons
N(Beta)            :       32.999920747384 electrons
N(Total)           :       65.999841494769 electrons
E(X)               :     -105.939881486590 Eh       
E(C)               :       -2.592474310649 Eh       
E(XC)              :     -108.532355797239 Eh       

---------------
SCF CONVERGENCE
---------------

  Last Energy change         ...    4.0109e-10  Tolerance :   1.0000e-09
  Last MAX-Density change    ...    1.0552e-05  Tolerance :   1.0000e-08
  Last RMS-Density change    ...    4.6908e-07  Tolerance :   1.0000e-09
  Last DIIS Error            ...    2.0319e-04  Tolerance :   1.0000e-08
  Last Orbital Gradient      ...    1.1268e-05  Tolerance :   2.0000e-06
  Last Orbital Rotation      ...    1.1734e-05  Tolerance :   2.0000e-06


----------------
ORBITAL ENERGIES
----------------

  NO   OCC          E(Eh)            E(eV) 
   0   2.0000    -101.352331     -2757.9371 
   1   2.0000    -101.352331     -2757.9371 
   2   2.0000     -88.708711     -2413.8868 
   3   2.0000     -88.708707     -2413.8866 
   4   2.0000      -9.326828      -253.7959 
   5   2.0000      -9.326828      -253.7959 
   6   2.0000      -7.875527      -214.3040 
   7   2.0000      -7.875435      -214.3015 
   8   2.0000      -7.047269      -191.7659 
   9   2.0000      -7.047269      -191.7659 
  10   2.0000      -7.035172      -191.4368 
  11   2.0000      -7.035172      -191.4368 
  12   2.0000      -7.034239      -191.4114 
  13   2.0000      -7.034238      -191.4114 
  14   2.0000      -5.812158      -158.1569 
  15   2.0000      -5.811953      -158.1513 
  16   2.0000      -5.806855      -158.0126 
  17   2.0000      -5.806511      -158.0032 
  18   2.0000      -5.797604      -157.7608 
  19   2.0000      -5.797602      -157.7608 
  20   2.0000      -0.863183       -23.4884 
  21   2.0000      -0.817626       -22.2487 
  22   2.0000      -0.739306       -20.1175 
  23   2.0000      -0.602946       -16.4070 
  24   2.0000      -0.452925       -12.3247 
  25   2.0000      -0.410127       -11.1601 
  26   2.0000      -0.397571       -10.8185 
  27   2.0000      -0.340796        -9.2735 
  28   2.0000      -0.335714        -9.1352 
  29   2.0000      -0.315101        -8.5743 
  30   2.0000      -0.289627        -7.8812 
  31   2.0000      -0.255249        -6.9457 
  32   2.0000      -0.250313        -6.8114 
  33   0.0000      -0.120576        -3.2810 
  34   0.0000      -0.117429        -3.1954 
  35   0.0000      -0.060592        -1.6488 
  36   0.0000       0.164920         4.4877 
  37   0.0000       0.207204         5.6383 
  38   0.0000       0.220260         5.9936 
  39   0.0000       0.227231         6.1833 
  40   0.0000       0.241065         6.5597 
  41   0.0000       0.259428         7.0594 
  42   0.0000       0.267922         7.2905 
  43   0.0000       0.289707         7.8833 
*Only the first 10 virtual orbitals were printed.

                    ********************************
                    * MULLIKEN POPULATION ANALYSIS *
                    ********************************

-----------------------
MULLIKEN ATOMIC CHARGES
-----------------------
   0 S :    0.128011
   1 S :    0.128011
   2 Cl:   -0.128011
   3 Cl:   -0.128011
Sum of atomic charges:    0.0000000

--------------------------------
MULLIKEN REDUCED ORBITAL CHARGES
--------------------------------
  0 S s       :     5.914950  s :     5.914950
      pz      :     3.362126  p :     9.827522
      px      :     3.404153
      py      :     3.061243
      dz2     :     0.020020  d :     0.129518
      dxz     :     0.014816
      dyz     :     0.034591
      dx2y2   :     0.027971
      dxy     :     0.032120

  1 S s       :     5.914950  s :     5.914950
      pz      :     3.362126  p :     9.827522
      px      :     3.404153
      py      :     3.061243
      dz2     :     0.020020  d :     0.129518
      dxz     :     0.014816
      dyz     :     0.034591
      dx2y2   :     0.027971
      dxy     :     0.032120

  2 Cls       :     5.968083  s :     5.968083
      pz      :     3.605048  p :    11.130738
      px      :     3.889216
      py      :     3.636473
      dz2     :     0.006678  d :     0.029189
      dxz     :     0.004298
      dyz     :     0.010346
      dx2y2   :     0.003289
      dxy     :     0.004579

  3 Cls       :     5.968083  s :     5.968083
      pz      :     3.605048  p :    11.130738
      px      :     3.889216
      py      :     3.636473
      dz2     :     0.006678  d :     0.029189
      dxz     :     0.004298
      dyz     :     0.010346
      dx2y2   :     0.003289
      dxy     :     0.004579



                     *******************************
                     * LOEWDIN POPULATION ANALYSIS *
                     *******************************

----------------------
LOEWDIN ATOMIC CHARGES
----------------------
   0 S :    0.105189
   1 S :    0.105189
   2 Cl:   -0.105189
   3 Cl:   -0.105189

-------------------------------
LOEWDIN REDUCED ORBITAL CHARGES
-------------------------------
  0 S s       :     5.694655  s :     5.694655
      pz      :     3.403405  p :    10.033464
      px      :     3.470511
      py      :     3.159548
      dz2     :     0.025945  d :     0.166693
      dxz     :     0.016101
      dyz     :     0.045968
      dx2y2   :     0.033658
      dxy     :     0.045022

  1 S s       :     5.694655  s :     5.694655
      pz      :     3.403405  p :    10.033464
      px      :     3.470511
      py      :     3.159548
      dz2     :     0.025945  d :     0.166693
      dxz     :     0.016101
      dyz     :     0.045968
      dx2y2   :     0.033658
      dxy     :     0.045022

  2 Cls       :     5.857848  s :     5.857848
      pz      :     3.645632  p :    11.210514
      px      :     3.893845
      py      :     3.671038
      dz2     :     0.007759  d :     0.036826
      dxz     :     0.005406
      dyz     :     0.014186
      dx2y2   :     0.003783
      dxy     :     0.005691

  3 Cls       :     5.857848  s :     5.857848
      pz      :     3.645632  p :    11.210514
      px      :     3.893845
      py      :     3.671038
      dz2     :     0.007759  d :     0.036826
      dxz     :     0.005406
      dyz     :     0.014186
      dx2y2   :     0.003783
      dxy     :     0.005691



                      *****************************
                      * MAYER POPULATION ANALYSIS *
                      *****************************

  NA   - Mulliken gross atomic population
  ZA   - Total nuclear charge
  QA   - Mulliken gross atomic charge
  VA   - Mayer's total valence
  BVA  - Mayer's bonded valence
  FA   - Mayer's free valence

  ATOM       NA         ZA         QA         VA         BVA        FA
  0 S     15.8720    16.0000     0.1280     2.3375     2.3375    -0.0000
  1 S     15.8720    16.0000     0.1280     2.3375     2.3375     0.0000
  2 Cl    17.1280    17.0000    -0.1280     1.0127     1.0127    -0.0000
  3 Cl    17.1280    17.0000    -0.1280     1.0127     1.0127     0.0000

  Mayer bond orders larger than 0.100000
B(  0-S ,  1-S ) :   1.3509 B(  0-S ,  2-Cl) :   0.8565 B(  0-S ,  3-Cl) :   0.1301 
B(  1-S ,  2-Cl) :   0.1301 B(  1-S ,  3-Cl) :   0.8565 

-------
TIMINGS
-------

Total SCF time: 0 days 0 hours 0 min 22 sec 

Total time                  ....      22.074 sec
Sum of individual times     ....      22.065 sec  (100.0%)

SCF preparation             ....       0.014 sec  (  0.1%)
Fock matrix formation       ....      21.915 sec  ( 99.3%)
  Startup                   ....       0.004 sec  (  0.0% of F)
  Coulomb formation         ....       8.338 sec  ( 38.0% of F)
  XC integration            ....      13.537 sec  ( 61.8% of F)
    XC Preparation          ....       0.000 sec  (  0.0% of XC)
    Basis function eval.    ....       2.328 sec  ( 17.2% of XC)
    Density eval.           ....       2.710 sec  ( 20.0% of XC)
    XC-Functional eval.     ....       0.926 sec  (  6.8% of XC)
    XC-Potential eval.      ....       7.189 sec  ( 53.1% of XC)
Diagonalization             ....       0.000 sec  (  0.0%)
Density matrix formation    ....       0.024 sec  (  0.1%)
Total Energy calculation    ....       0.009 sec  (  0.0%)
Population analysis         ....       0.002 sec  (  0.0%)
Orbital Transformation      ....       0.005 sec  (  0.0%)
Orbital Orthonormalization  ....       0.000 sec  (  0.0%)
DIIS solution               ....       0.090 sec  (  0.4%)
SOSCF solution              ....       0.007 sec  (  0.0%)
Finished LeanSCF after  22.1 sec

Maximum memory used throughout the entire LEANSCF-calculation: 12.5 MB

------------------------------------------------------------------------------
                         ORCA PROPERTY INTEGRAL CALCULATIONS
------------------------------------------------------------------------------

GBWName                                   ... s2cl2_rks_def2tzvpp_efg.gbw
Number of atoms                           ...      4
Number of basis functions                 ...    184
Max core memory                           ... 100000 MB

Dipole integrals                          ... YES(DKH)
Quadrupole integrals                      ...  NO
Linear momentum integrals                 ...  NO
Angular momentum integrals                ...  NO
Higher moments length integrals           ...  NO
Higher moments velocity integrals         ...  NO
Kinetic energy integrals                  ...  NO
GIAO right hand sides                     ...  NO
GIAO dipole derivative integrals          ...  NO
SOC integrals                             ...  NO
EPR diamagnetic integrals (GIAO)          ...  NO
EPR gauge integrals                       ...  NO
Field gradient integrals                  ... YES(DKH) (   4 nuclei)
Spin-dipole/Fermi contact integrals       ...  NO (   0 nuclei)
Contact density integrals                 ...  NO (   0 nuclei)
Nucleus-orbit integrals                   ...  NO (   0 nuclei)
Geometric perturbations                   ...  NO (   4 nuclei)

DKH transformation order                  ... First
Note: picture-change corrections are only included
      for the integrals annotated with "YES(DKH)"!

Choice of electric origin   ... Center of mass
Position of electric origin ... ( -0.0000, -0.0000, -0.0270) 
Choice of magnetic origin   ... GIAO
Position of magnetic origin ... (  0.0000,  0.0000,  0.0000) 

Calculating integrals                     ... Electric Dipole (Length)     done (  0.0 sec)
Calculating integrals                     ... SD/FC/EFG integrals          done (  0.0 sec)

Property integrals calculated in   0.0 sec

Maximum memory used throughout the entire PROPINT-calculation: 13.8 MB

-------------------------   --------------------
FINAL SINGLE POINT ENERGY     -1721.924452278802
-------------------------   --------------------


------------------------------------------------------------------------------
                              ORCA PROPERTY CALCULATIONS
------------------------------------------------------------------------------

GBWName                                 ... s2cl2_rks_def2tzvpp_efg.gbw
Number of atoms                         ...      4
Number of basis functions               ...    184
Max core memory                         ... 100000 MB

Electric properties:
Dipole moment                           ... YES(DKH)
Quadrupole moment                       ...  NO
Static polarizability (Dipole/Dipole)   ...  NO
Static polarizability (Dipole/Quad.)    ...  NO
Static polarizability (Quad./Quad.)     ...  NO
Static polarizability (Velocity)        ...  NO

Atomic electric properties:
Dipole moment                           ...  NO
Quadrupole moment                       ...  NO
Static polarizability                   ...  NO

Choice of electric origin               ... Center of mass
Position of electric origin             ...    -0.000000    -0.000000    -0.026994

General magnetic properties:
Magnetizability                         ...  NO

EPR properties:
g-Tensor (aka g-matrix)                 ...  NO
Zero-Field splitting spin-orbit         ...  NO
Zero-field splitting spin-spin          ...  NO
Hyperfine couplings                     ...  NO (   0 nuclei)
Quadrupole couplings                    ... YES(DKH) (   4 nuclei)
Contact density                         ...  NO (   0 nuclei)

NMR properties:
Chemical shifts                         ...  NO (   0 nuclei)
Spin-rotation constants                 ...  NO (   0 nuclei)
Spin-spin couplings                     ...  NO (   0 nuclei,    0 pairs)

Choice of magnetic origin               ... GIAO
Position of magnetic origin             ...     0.000000     0.000000     0.000000

Properties with geometric perturbations:
SCF Hessian                             ...  NO
IR spectrum                             ...  NO
VCD spectrum                            ...  NO
X-ray spectroscopy properties:
SCF XES/XAS/RIXS spectra                ...  NO

DKH transformation order                ... First
Note: picture-change corrections are only included
      for the properties annotated with "YES(DKH)"!


-------------
DIPOLE MOMENT
-------------

Method             : SCF
Type of density    : Electron Density
Multiplicity       :   1
Irrep              :   0
Energy             : -1721.9244522788019367 Eh
Relativity type    : 
Basis              : AO
                                X                 Y                 Z
Electronic contribution:     -0.000000000      -0.000000000      -1.366931545
Nuclear contribution   :      0.000000000       0.000000000       1.791828950
                        -----------------------------------------
Total Dipole Moment    :     -0.000000000       0.000000000       0.424897405
                        -----------------------------------------
Magnitude (a.u.)       :      0.424897405
Magnitude (Debye)      :      1.080003375



--------------------
Rotational spectrum 
--------------------
 
Rotational constants in cm-1:             0.183197             0.046150             0.040828 
Rotational constants in MHz :          5492.103378          1383.552987          1223.994398 

Dipole components along the rotational axes: 
x,y,z [a.u.] :     0.000000     0.424897    -0.000000 
x,y,z [Debye]:     0.000000     1.080003    -0.000000 

 

Dipole moment calculation done in   0.0 sec 

-----------------------------------------
ELECTRIC AND MAGNETIC HYPERFINE STRUCTURE (4 nuclei)
-----------------------------------------

Number of nuclei to compute A(iso)       :     0
Number of nuclei to compute A(dip)       :     0
Number of nuclei to compute A(orb)       :     0
Number of nuclei to compute A(dia)       :     0
Number of nuclei to compute EFG          :     4
Number of nuclei to compute Rho(0)       :     0
Relativistic treatment                   :  DKH
DKH transformation order                 :  First

Method             : SCF
Type of density    : Electron Density
Multiplicity       :   1
Irrep              :   0
Energy             : -1721.9244522788019367 Eh
Relativity type    : 
Basis              : AO
 -----------------------------------------------------------
 Nucleus   0S : A  : Isotope=    0 I=  0.0 P=  0.0000 MHz/au**3 
                Q  : Isotope=    0 I=  0.0 Q=  0.0000 barn      
                HFC: iso  = NO dip= NO orb= NO gauge= NO    
                EFG: fgrad=YES rho= NO                      
 -----------------------------------------------------------

 Raw EFG matrix (all values in a.u.**-3):
 ------------------------------------------------------
             -0.9243430       0.7933179       1.7339200
              0.7933179       1.2488221      -2.0770469
              1.7339200      -2.0770469      -0.3244791

 V(Tot)       0.5504004       2.7218612      -3.2722616
 Orientation: 
     X        0.7702845      -0.1153729      -0.6271769
     Y        0.4547075       0.7889204       0.4133349
     Z        0.4471050      -0.6035675       0.6601541

 Note: Tensor is right-handed

 Contributions:
 V(El )       0.3725008       2.2846389  -2.6571398
 V(Nuc)       0.1778995       0.4372223  -0.6151218
 -----------------------------------------------------------
 Nucleus   1S : A  : Isotope=    0 I=  0.0 P=  0.0000 MHz/au**3 
                Q  : Isotope=    0 I=  0.0 Q=  0.0000 barn      
                HFC: iso  = NO dip= NO orb= NO gauge= NO    
                EFG: fgrad=YES rho= NO                      
 -----------------------------------------------------------

 Raw EFG matrix (all values in a.u.**-3):
 ------------------------------------------------------
             -0.9243430       0.7933179      -1.7339200
              0.7933179       1.2488221       2.0770469
             -1.7339200       2.0770469      -0.3244791

 V(Tot)       0.5504004       2.7218612      -3.2722616
 Orientation: 
     X       -0.7702845       0.1153729       0.6271769
     Y       -0.4547075      -0.7889204      -0.4133349
     Z        0.4471050      -0.6035675       0.6601541

 Note: Tensor is right-handed

 Contributions:
 V(El )       0.3725008       2.2846389  -2.6571398
 V(Nuc)       0.1778995       0.4372223  -0.6151218
 -----------------------------------------------------------
 Nucleus   2Cl: A  : Isotope=    0 I=  0.0 P=  0.0000 MHz/au**3 
                Q  : Isotope=    0 I=  0.0 Q=  0.0000 barn      
                HFC: iso  = NO dip= NO orb= NO gauge= NO    
                EFG: fgrad=YES rho= NO                      
 -----------------------------------------------------------

 Raw EFG matrix (all values in a.u.**-3):
 ------------------------------------------------------
             -1.4841232      -1.0040039       1.3800067
             -1.0040039       0.6251046      -2.7506355
              1.3800067      -2.7506355       0.8590186

 V(Tot)      -1.7881024      -2.2278234       4.0159257
 Orientation: 
     X        0.6793744      -0.6721936       0.2942892
     Y        0.6564375       0.3775070      -0.6531296
     Z        0.3279333       0.6369020       0.6977217

 Note: Tensor is right-handed

 Contributions:
 V(El )      -1.5201432      -1.8648959   3.3850391
 V(Nuc)      -0.2679591      -0.3629275   0.6308867
 -----------------------------------------------------------
 Nucleus   3Cl: A  : Isotope=    0 I=  0.0 P=  0.0000 MHz/au**3 
                Q  : Isotope=    0 I=  0.0 Q=  0.0000 barn      
                HFC: iso  = NO dip= NO orb= NO gauge= NO    
                EFG: fgrad=YES rho= NO                      
 -----------------------------------------------------------

 Raw EFG matrix (all values in a.u.**-3):
 ------------------------------------------------------
             -1.4841232      -1.0040039      -1.3800067
             -1.0040039       0.6251046       2.7506355
             -1.3800067       2.7506355       0.8590186

 V(Tot)      -1.7881024      -2.2278234       4.0159257
 Orientation: 
     X        0.6793744      -0.6721936      -0.2942892
     Y        0.6564375       0.3775070       0.6531296
     Z       -0.3279333      -0.6369020       0.6977217

 Note: Tensor is right-handed

 Contributions:
 V(El )      -1.5201432      -1.8648959   3.3850391
 V(Nuc)      -0.2679591      -0.3629275   0.6308867

Hyperfine and quadrupole coupling calculation done in   0.0 sec 

Maximum memory used throughout the entire PROP-calculation: 10.1 MB

--------------------------------
SUGGESTED CITATIONS FOR THIS RUN
--------------------------------

Below you find a list of papers that are relevant to this ORCA run
We neither can nor want to force you to cite these papers, but we appreciate if you do
You receive ORCA, which is the product of decades of hard work by many enthusiastic individuals, for free
The only thing we kindly ask in return is that you cite our papers,
We deeply appreciate it, if you show your appreciation for ORCA by not just citing the generic ORCA reference.

Please note that relegating all ORCA citations to the supporting information does *not* help us.
SI sections are not indexed - citations you put there will not count into any citation statistics
But we need these citations in order to attract the funding resources that allow us to do what we are doing

Therefore, if you are a happy ORCA user, please consider citing a few of the papers listed below in the main body of your paper

In addition to the list printed below, the program has created the file s2cl2_rks_def2tzvpp_efg.bibtex that contains the list in bibtex format
You can import this file easily into all common literature databanks and citation aid programs


List of essential papers. We consider these as the minimum necessary citations

  1. Neese,F.
     Software update: the ORCA program system, version 5.0
     WIRES Comput. Molec. Sci., 2022 12(1)e1606
     doi.org/10.1002/wcms.1606

List of papers to cite with high priority. The work reported in these papers was absolutely
necessary for this run to complete.
Our perspective: the developers of density functionals and basis sets usually get cited in chemistry papers
Good! But without the algorithms to do something with them, the functionals or basis sets would not do anything.
Hence, in our opinion, the algorithm design and method developments papers are equally worthy of getting cited

  1. Neese,F.; Wolf,A.; Fleig,T.; Reiher,M.; Hess,B.A.
     Calculation of electric-field gradients based on higher-order generalized Douglas-Kroll transformations
     J. Chem. Phys., 2005 122(20)Art. No. 204107
     doi.org/10.1063/1.1904589
  2. Sandhoefer,B.; Neese,F.
     One-electron contributions to the g-tensor for second-order Douglas-Kroll-Hess theory
     J. Chem. Phys., 2012 137 
     doi.org/10.1063/1.4747454
  3. Neese,F.
     The SHARK Integral Generation and Digestion System
     J. Comp. Chem., 2022  1-16
     doi.org/10.1002/jcc.26942

List of suggested additional citations. These are papers that are important in the 'surrounding' of 
of this run, or papers that preceded the highly important papers. If you like your results we are grateful for a citation.

  1. Neese,F.
     The ORCA program system
     WIRES Comput. Molec. Sci., 2012 2(1)73-78
     doi.org/10.1002/wcms.81
  2. Neese,F.
     Software update: the ORCA program system, version 4.0
     WIRES Comput. Molec. Sci., 2018 8(1)1-6
     doi.org/10.1002/wcms.1327
  3. Neese,F.; Wennmohs,F.; Becker,U.; Riplinger,C.
     The ORCA quantum chemistry program package
     J. Chem. Phys., 2020 152 Art. No. L224108
     doi.org/10.1063/5.0004608

List of optional additional citations

  1. Neese,F.
     Approximate second-order SCF convergence for spin unrestricted wavefunctions
     Chem. Phys. Lett., 2000 325(1-3)93-98
     doi.org/10.1016/s0009-2614(00)00662-x

Timings for individual modules:

Sum of individual times          ...       24.308 sec (=   0.405 min)
Startup calculation              ...        1.292 sec (=   0.022 min)   5.3 %
Relativistic integrals           ...        0.182 sec (=   0.003 min)   0.8 %
SCF iterations                   ...       22.339 sec (=   0.372 min)  91.9 %
Property integrals               ...        0.282 sec (=   0.005 min)   1.2 %
Property calculations            ...        0.212 sec (=   0.004 min)   0.9 %
                             ****ORCA TERMINATED NORMALLY****
TOTAL RUN TIME: 0 days 0 hours 0 minutes 24 seconds 401 msec
