 --invoking executable--
/usr/local/cfour/bin/xjoda


   *************************************************************************
         <<<     CCCCCC     CCCCCC   |||     CCCCCC     CCCCCC   >>>
       <<<      CCC        CCC       |||    CCC        CCC         >>>
      <<<      CCC        CCC        |||   CCC        CCC            >>>
    <<<        CCC        CCC        |||   CCC        CCC              >>>
      <<<      CCC        CCC        |||   CCC        CCC            >>>
       <<<      CCC        CCC       |||    CCC        CCC         >>>
         <<<     CCCCCC     CCCCCC   |||     CCCCCC     CCCCCC   >>>
   *************************************************************************

     ****************************************************************
     * CFOUR Coupled-Cluster techniques for Computational Chemistry *
     ****************************************************************


   Department of Chemistry                Institut fuer Physikalische Chemie
   University of Florida                  Universitaet Mainz
   Gainesville, FL 32611, USA             D-55099 Mainz, Germany

   Department of Chemistry                Fakultaet fuer Chemie und Biowiss.
   Johns Hopkins University               Karlsruher Institut fuer Technologie
   Baltimore, MD 21218, USA               D-76131 Karlsruhe, Germany

   Department of Chemistry                Department of Physical Chemistry
   Southern Methodist University          Eotvos Lorand University
   Dallas, TX 75275, USA                  H-1053 Budapest, Hungary


                       Version 2.1

                     andrey-ThinkPad-T490s                             
                     Mi 16. Jul 05:58:14 CEST 2025                     
                     integer*8 version is running

********************************************************************************
*                          Input from ZMAT file                                *
********************************************************************************
ZMAT Geometry optimization S2Cl2                                                
S                                                                               
S 1 B1*                                                                         
Cl 1 B2* 2 A2*                                                                  
Cl 2 B3* 1 A3* 3 D3*                                                            
                                                                                
B1=1.94828                                                                      
B2=2.05382                                                                      
A2=107.44850                                                                    
B3=2.05382                                                                      
A3=107.44850                                                                    
D3=274.60345                                                                    
                                                                                
*CFOUR(CALC=CCSD(T),BASIS=SPECIAL,FROZEN_CORE=ON                                
GEO_CONV=10,SCF_CONV=9,CC_CONV=9,LINEQ_CONV=9                                   
CC_PROG=ECC,ABCDTYPE=AOBASIS                                                    
MEM_UNIT=GB,MEMORY=10)                                                          
                                                                                
S:aug-cc-pVTZ                                                                   
S:aug-cc-pVTZ                                                                   
CL:aug-cc-pVTZ                                                                  
CL:aug-cc-pVTZ                                                                  
                                                                                
********************************************************************************
    -------------------------------------------------------------------
                    CFOUR Control Parameters 
    -------------------------------------------------------------------
        External           Internal           Value            Units
          Name               Name
    -------------------------------------------------------------------
       ABCDTYPE             IABCDT         AOBASIS     [  2]    ***   
       ANHARMONIC           IANHAR         OFF         [  0]    ***   
       ANH_ALGORIT          IANALG         STANDARD    [  0]    ***   
       ANH_DERIVAT          IANDER         SECOND      [  1]    ***   
       ANH_MODE             ANHMOD         VIBRATION   [  0]    ***   
       ANH_STEPSIZ          ICUBST             50000          x 10-6  
       ANH_SYMMETR          IANHSM         ABELIAN     [  0]    ***   
       AO_LADDERS           IAOLAD         SINGLEPASS  [  1]    ***   
       AV_SCF               IAVSCF         OFF         [  0]    ***   
       BASIS                IBASIS         SPECIAL     [  0]    ***   
       BOTHVECTORS          BOTHVC         OFF         [  0]    ***   
       BOX_POTENT           IPIAB          OFF         [  0]    ***   
       BREIT                IBREIT         OFF         [  0]    ***   
       BRUCK_CONV           IBRTOL          10D-  4             ***   
       BRUECKNER            IBRKNR         OFF         [  0]    ***   
       BUFFERSIZE           IBUFFS              4096            ***   
       CACHE_RECS           ICHREC             10               ***   
       CALCLEVEL            ICLLVL         CCSD(T)     [ 22]    ***   
       CCORBOPT             ICCORB         OFF         [  0]  x 0.01  
       CC_CONV              ICCCNV          10D-  9             ***   
       CC_EXPORDER          ICCEOR              5               ***   
       CC_EXTRAPOL          ICCEXT         DIIS        [  1]    ***   
       CC_GUESS             ICCGES         MP2         [  0]    ***   
       CC_MAXCYC            ICCCYC            100              cycles 
       CC_PROGRAM           ICCPRO         ECC         [  1]    ***   
       CHARGE               ICHRGE              0               ***   
       CHOLESKY             ICHOLE         OFF         [  0]    ***   
       CIS_CONV             ICISTL              5               ***   
       COMM_SIZE            IPSIZE            ***               ***   
       CONSTANT             ICONST         OLD         [  1]    ***   
       CONTINUUM            ICONTU         NONE        [  0]    ***   
       CONTRACTION          ICNTYP         GENERAL     [  1]    ***   
       COORDINATES          ICOORD         INTERNAL    [  0]    ***   
       CPHF_CONVER          ICPHFT          10D- 16             ***   
       CPHF_MAXCYC          ICPHFC             64              cycles 
       CUBIC                ICUBIC         OFF         [  0]    ***   
       CURVILINEAR          ICURVY         OFF         [  0]    ***   
       DBOC                 IDBOC          OFF         [  0]    ***   
       DCT                  IDCT           OFF         [  0]    ***   
       DERIV_LEV            IDRLVL         FIRST       [  1]    ***   
       DEVMEM_SIZE          IDVMEM         *********           MByte  
       DIAG_MRCC            IEOMST          10D-  0             ***   
       DIFF_TYPE            IDIFTY         RELAXED     [  0]    ***   
       DIRECT               IDIRCT         OFF         [  0]    ***   
       DROPMO               IDRPMO      NONE         
       ECP                  IECP           OFF         [  0]    ***   
       EIGENVECTOR          IVEC                1               ***   
       EL_ANHARM            IELANH         OFF         [  0]    ***   
       EOMFOLLOW            IEOMSR         ENERGY      [  0]    ***   
       EOMIP                IEOMIP         OFF         [  0]    ***   
       EOMLEVEL             HBARFM         SAME        [  0]    ***   
       EOM_MRCC             IMRCCE         NEW         [  1]    ***   
       EOM_NONIT            EOMNON         OFF         [  0]    ***   
       EOM_NSING            IEOMSI          10D-  0             ***   
       EOM_NSTATES          IMRCCD         DAVIDSON    [  0]    ***   
       EOM_NTRIP            IEOMTR          10D-  0             ***   
       EOM_ORDER            IEXORD         ENERGY      [  0]    ***   
       EOM_PROPSTA          IEOMST              0               ***   
       ESTATE_CONV          IEXTOL          10D-  5             ***   
       ESTATE_DIAG          IEXDIG         ITERATIVE   [  0]    ***   
       ESTATE_LOCK          IESLOC         ON          [  1]    ***   
       ESTATE_MAXC          IEXMXC             40               ***   
       ESTATE_PROP          IEXPRP         OFF         [  0]    ***   
       EVAL_HESS            IRECAL              0            # of cyc.
       EXCITATION           IEXCIT              0               ***   
       EXCITE               IEXCIT         NONE        [  0]    ***   
       EXTERN_POT           IEXPOT         OFF         [  0]    ***   
       FCGRADNEW            IFCGNW         OFF         [  0]    ***   
       FC_FIELD             IFINFC              0             x 10-6  
       FD_CALTYPE           IFDCAL         GRADONLY    [  0]    ***   
       FD_PROJECT           IFDPRJ         OFF         [  1]    ***   
       FD_STEPSIZE          IDISFD              0            10-4 bohr
       FD_USEGROUP          IFDGRP         FULL        [  0]    ***   
       FILE_RECSIZ          IFLREC              4096           words  
       FINITE_PERT          IFIPER              0             x 10-6  
       FIXGEOM              IFIXGM         OFF         [  0]    ***   
       FOCK                 IFOCK          AO          [  1]    ***   
       FREQ_ALGORI          IVIALG         STANDARD    [  0]    ***   
       FROZEN_CORE          IFROCO         ON          [  1]    ***   
       GAMMA_ABCD           IGABCD         DIRECT      [  1]    ***   
       GAMMA_ABCI           IGABCI         STORE       [  0]    ***   
       GENBAS_1             IGNBS1              0               ***   
       GENBAS_2             IGNBS2              0               ***   
       GENBAS_3             IGNBS3              0               ***   
       GENBAS_4             IGNBS4              0               ***   
       GEO_CONV             ICONTL             10              H/bohr 
       GEO_MAXCYC           IOPTCY             50               ***   
       GEO_MAXSTEP          IMXSTP            300            millibohr
       GEO_METHOD           INR            NR          [  0]    ***   
       GIAO                 IGIAO          OFF         [  1]    ***   
       GIMIC                IGIMIC         OFF         [  0]    ***   
       GRID                 IGRID          OFF         [  0]    ***   
       GRID_ALGO            IGALGO         SERIAL      [  0]    ***   
       GUESS                IGUESS         MOREAD      [  0]    ***   
       HBAR                 IHBAR          OFF         [  0]    ***   
       HESS_TYPE            IHESTP         SCF         [  0]    ***   
       HF2_FILE             IHF2Fl         USE         [  1]    ***   
       HFSTABILITY          ISTABL         OFF         [  0]    ***   
       INCORE               INCORE         OFF         [  0]    ***   
       INPUT_MRCC           IMRCC          ON          [  1]    ***   
       INTEGRALS            INTTYP         VMOL        [  1]    ***   
       JODA_PRINT           IJPRNT              0               ***   
       KEYWORD_OUT          IDMPKW         NO          [  0]    ***   
       LINDEP_TOL           ILINDP              8               ***   
       LINEQ_CONV           IZTACN          10D-  9           cycles  
       LINEQ_EXPOR          ILMAXD              5               ***   
       LINEQ_MAXCY          ILMAXC            100               ***   
       LINEQ_TYPE           ILTYPE         DIIS        [  1]    ***   
       LOCK_ORBOCC          ILOCOC         OFF         [  0]    ***   
       MEMORY_SIZE          IMEMSZ         *********           words  
       MEM_UNIT             IMEMU          GB          [  3]    ***   
       MRCC                 IMRCCC         OFF         [  0]    ***   
       MULTIPLICTY          IMULTP              1               ***   
       NACOUPLING           IVCOUP         OFF         [  0]    ***   
       NEGEVAL              IDIE           ABORT       [  0]    ***   
       NEWNORM              INEWNO         OFF         [  0]    ***   
       NON-HF               INONHF         OFF         [  0]    ***   
       NTOP_TAMP            ITOPT2             15               ***   
       NUC_MODEL            INUCMO         POINT       [  0]    ***   
       OCCUPATION           IOCCU   ESTIMATED BY SCF 
       OPEN-SHELL           IOPEN          SPIN-ORBITAL[  0]    ***   
       OPTVIB               IOPTVB         OFF         [  0]    ***   
       ORBITALS             IORBTP         STANDARD    [  0]    ***   
       PARALLEL             IPARAL         ON          [  1]    ***   
       PARA_INT             IPINTS         ON          [  1]    ***   
       PARA_PRINT           IPPRIN              0               ***   
       PERT_ORB             IPTORB         CANONICAL   [  1]    ***   
       POINTS               IGRDFD              0               ***   
       PRINT                IPRNT               0               ***   
       PROPS                IPROPS         OFF         [  0]    ***   
       PROP_INTEGR          IINTYP         INTERNAL    [  0]    ***   
       PSI                  IPSI           OFF         [  0]    ***   
       QC_ALG               IQCALG         FLM         [  0]    ***   
       QC_LINALG            IQCLIN         TRIDIAG     [  2]    ***   
       QC_MAXCYC            IQCMAX          10D-100           cycles  
       QC_MAXSCFCY          IQCMSC          10D- 15           cycles  
       QC_RTRUST            IQCRTR          10D-  0           x 10-3  
       QC_SKIPSCF           IQCSKI         OFF         [  0]    ***   
       QC_START             IQCSTA          10D-  1             ***   
       QRHFGUESS            IQGUES         OFF         [  0]    ***   
       QUARTIC              IQUART         OFF         [  0]    ***   
       RAMAN_INT            IRAMIN         OFF         [  0]    ***   
       RAMAN_ORB            IRAMRE         UNRELAXED   [  0]    ***   
       RDO                  IRDOFM         ON          [  1]    ***   
       REDUCE_REPR          REDREP         Ir          [  0]    ***   
       REFERENCE            IREFNC         RHF         [  0]    ***   
       RELATIVIST           IRELAT         OFF         [  0]    ***   
       RELAX_DENS           IRDENS         ON          [  1]    ***   
       RESET_FLAGS          IRESET         OFF         [  0]    ***   
       RESTART_CC           ICCRES         OFF         [  0]    ***   
       ROT_EVEC             ROTVEC              0               ***   
       SAVE_INTS            ISVINT         OFF         [  0]    ***   
       SCALE_ON             ISTCRT              0               ***   
       SCF_CONV             ISCFCV          10D-  9             ***   
       SCF_DAMPING          IDAMP               0             x 10-3  
       SCF_EXPORDE          IRPPOR              6               ***   
       SCF_EXPSTAR          IRPPLS              8               ***   
       SCF_EXTRAPO          IRPP           ON          [  1]    ***   
       SCF_MAXCYC           ISCFCY            150              cycles 
       SCF_NOSTOP           ISCFST         OFF         [  0]    ***   
       SCF_PRINT            ISCFPR              0               ***   
       SCF_PROG             ISCFPR         SCF         [  0]    ***   
       SD_FIELD             IFINSD              0             x 10-6  
       SOPERT               IPERSO         OFF         [  0]    ***   
       SPHERICAL            IDFGHI         ON          [  1]    ***   
       SPINORBIT            ISOCAL         OFF         [  0]    ***   
       SPINROTATIO          ISRCON         OFF         [  0]    ***   
       SPIN_FLIP            ISPFLP         OFF         [  0]    ***   
       SPIN_ORBIT           ISPORB         OFF         [  0]    ***   
       SPIN_SCAL            ISCSMP         OFF         [  0]    ***   
       STEEPSCALE           ISTPSC              1000          x 10-3  
       SUBGROUP             ISUBGP         DEFAULT     [  0]    ***   
       SUBGRPAXIS           ISBXYZ         X           [  0]    ***   
       SYMMETRY             ISYM           ON          [  0]    ***   
       SYM_CHECK            ISYMCK         OVERRIDE    [  1]    ***   
       T3_EXTRAPOL          IT3EXT         OFF         [  0]    ***   
       T4_EXTRAPOL          IT4EXP         OFF         [  0]    ***   
       TAMP_SUM             IEVERY              5               ***   
       TESTSUITE            ITESTS         OFF         [  0]    ***   
       THERMOCH             ITHERM         OFF         [  0]    ***   
       TOL_CHOLESK          ITOLCH          10D-  4             ***   
       TRANGRAD             IRESRM         OFF         [  0]    ***   
       TRANS_INV            ITRAIN         USE         [  0]    ***   
       TREAT_PERT           ITREAT         SIMULTANEOUS[  0]    ***   
       TRIP_ALGORI          ITRALG         NORMAL      [  0]    ***   
       UIJ_THRESHO          IUIJTH              1               ***   
       UNITS                IUNITS         ANGSTROM    [  0]    ***   
       UNOS                 IUNOS          OFF         [  0]    ***   
       UPDATE_HESS          IHUPDT         ON          [  1]    ***   
       VIBPHASE             ISETPH         STANDARD    [  0]    ***   
       VIBRATION            IVIB           NO          [  0]    ***   
       VIB_ALGORIT          IGEALG         STANDARD    [  0]    ***   
       VNATORB              IVNORB         OFF         [  0]    ***   
       VTRAN                IVTRAN         PARTIAL     [  2]    ***   
       XFIELD               IXEFLD              0             x 10-6  
       XFORM_TOL            IXFTOL          10D- 11             ***   
       YFIELD               IYEFLD              0             x 10-6  
       ZFIELD               IZEFLD              0             x 10-6  
       ZSCALE_EXP           IZEXPS         OFF         [  0]    ***   
    -------------------------------------------------------------------
   4 entries found in Z-matrix 
   Job Title : ZMAT Geometry optimization S2Cl2                                                
   There are  6 unique internal coordinates.
   Of these,  6 will be optimized.
   User supplied Z-matrix: 
--------------------------------------------------------------------------------
       SYMBOL    BOND      LENGTH    ANGLE     ANGLE     DIHED     ANGLE
                  TO      (ANGST)    WRT      (DEG)      WRT      (DEG)
--------------------------------------------------------------------------------
        S    
        S          1         B1   
        Cl         1         B2         2        A2   
        Cl         2         B3         1        A3         3        D3   
                  *Initial values for internal coordinates* 
                      Name             Value
                        B1              1.9482800000
                        B2              2.0538200000
                        A2            107.4485000000
                        B3              2.0538200000
                        A3            107.4485000000
                        D3            274.6034500000
--------------------------------------------------------------------------------
   Rotational constants (in cm-1): 
          0.0413072056             0.0467032249             0.1844920735
   Rotational constants (in MHz): 
       1238.3590447019          1400.1276558083          5530.9339936348
********************************************************************************
   The full molecular point group is C2  .
   The largest Abelian subgroup of the full molecular point group is C2  .
   The computational point group is C2  .
********************************************************************************
--------------------------------------------------------------------------------
   Analysis of internal coordinates specified by Z-matrix 
--------------------------------------------------------------------------------
   *The nuclear repulsion energy is  335.807651035090316 a.u.
  *WARNING* Parameters B2    and B3    appear to be equivalent.
  *WARNING* Parameters A2    and A3    appear to be equivalent.
   *There are   4 degrees of freedom within the tot. symm. molecular subspace.
   *Z-matrix requests optimization of   6 coordinates.
   *The following   4 parameters can have non-zero 
    derivatives within the totally symmetric subspace:
             D3   [ 6]  B2   [ 2]  A2   [ 3]  B1   [ 1]
   *The following   6 parameters are to be optimized:
             B1   [ 1]  B2   [ 2]  A2   [ 3]  B3   [ 4]  A3   [ 5]  D3   [ 6]

--------------------------------------------------------------------------------


 ----------------------------------------------------------------
         Coordinates used in calculation (QCOMP) 
 ----------------------------------------------------------------
 Z-matrix   Atomic            Coordinates (in bohr)
  Symbol    Number           X              Y              Z
 ----------------------------------------------------------------
     S        16        -1.04136730     1.51799639     1.42148522
     S        16         1.04136730    -1.51799639     1.42148522
     CL       17         0.37078223     3.89802970    -1.29966592
     CL       17        -0.37078223    -3.89802970    -1.29966592
 ----------------------------------------------------------------

   Interatomic distance matrix (Angstroms) 

                 S             S             CL            CL   
                [ 1]        [ 2]        [ 3]        [ 4]
  S    [ 1]     0.00000
  S    [ 2]     1.94828     0.00000
  CL   [ 3]     2.05382     3.22701     0.00000
  CL   [ 4]     3.22701     2.05382     4.14412     0.00000
 rotcon2
   Rotational constants (in cm-1): 
          0.0413072056             0.1844920735             0.0467032249
   Rotational constants (in MHz): 
       1238.3590447019          5530.9339936348          1400.1276558083
  ECPDATA file not present.   Using default ECPDATA. 
  There are  20 frozen-core orbitals.
  There are  200 basis functions.
 @CHECKOUT-I, Total execution time (CPU/WALL):        1.12/       0.19 seconds.
--executable xjoda finished with status     0 in        0.20 seconds (walltime).
 --invoking executable--
/usr/local/cfour/bin/xvmol
 SERIAL VERSION OF MOLECULE STARTED
********************************************************************************
                    INPUT FROM MOL FILE
********************************************************************************
INTGRL        1    0    1    0    0    0    0    0    0                         
         *** CFOUR Program System (Release V0.1) ***                            
ZMAT Geometry optimization S2Cl2                                                
    2    1 XY         0.10E-08              0    0                              
   9999.00      3.00                                                            
         16.00000000    1    4    1    1    1    1                              
S #1  -1.041367298073101   1.517996388883000   1.421485222031038                
   16    6                                                                      
   374100.00000000000        5.4214000000000000E-005  -1.4983700000000000E-005  
   56050.000000000000        4.2085499999999998E-004  -1.1619800000000000E-004  
   12760.000000000000        2.2069799999999999E-003  -6.1158299999999996E-004  
   3615.0000000000000        9.1925800000000005E-003  -2.5536999999999999E-003  
   1183.0000000000000        3.2112300000000003E-002  -9.0870800000000009E-003  
   428.80000000000001        9.4668299999999997E-002  -2.7704500000000000E-002  
   167.80000000000001       0.22363000000000000       -7.2001999999999997E-002  
   69.469999999999999       0.37439299999999998      -0.14643900000000001       
   29.840000000000000       0.32910800000000001      -0.19514999999999999       
   12.720000000000001        8.4703799999999996E-002   8.1919300000000000E-003  
   5.2439999999999998        4.4085100000000002E-004  0.51660099999999998       
   2.2189999999999999        1.6482700000000001E-003  0.54217800000000005       
  0.77669999999999995       -6.2233199999999996E-004   6.8843000000000001E-002  
  0.34899999999999998        3.0130599999999999E-004  -9.1807199999999999E-003  
  0.13220000000000001       -8.4128999999999994E-005   2.2683199999999999E-003  
   4.9700000000000001E-002   0.0000000000000000        0.0000000000000000       
   10    5                                                                      
   574.39999999999998        2.4226400000000002E-003   0.0000000000000000       
   135.80000000000001        1.9279600000000001E-002   0.0000000000000000       
   43.189999999999998        8.8540099999999997E-002   0.0000000000000000       
   15.869999999999999       0.25465399999999999        0.0000000000000000       
   6.2080000000000002       0.43398399999999998        0.0000000000000000      -
   2.4830000000000001       0.35495300000000002        0.0000000000000000       
  0.86880000000000002        6.1894100000000001E-002   1.0000000000000000       
  0.32290000000000002       -5.0297700000000002E-003   0.0000000000000000       
  0.10979999999999999        2.0981300000000001E-003   0.0000000000000000       
   3.5099999999999999E-002   0.0000000000000000        0.0000000000000000       
    3    3                                                                      
  0.81899999999999995        1.0000000000000000        0.0000000000000000       
  0.26900000000000002        0.0000000000000000        1.0000000000000000       
  0.10100000000000001        0.0000000000000000        0.0000000000000000       
    2    2                                                                      
  0.55700000000000005        1.0000000000000000        0.0000000000000000       
  0.21800000000000000        0.0000000000000000        1.0000000000000000       
         17.00000000    1    4    1    1    1    1                              
CL#2   0.370782228761564   3.898029701422116  -1.299665916419632                
   16    6                                                                      
   456100.00000000000        4.9296999999999999E-005  -1.3830400000000001E-005  
   68330.000000000000        3.8302900000000001E-004  -1.0727900000000000E-004  
   15550.000000000000        2.0085400000000001E-003  -5.6508299999999997E-004  

OMP_NUM_THREADS not specified; defaulting to 1
Running with 1 threads/proc

   4405.0000000000000        8.3855800000000001E-003  -2.3613499999999999E-003  
   1439.0000000000000        2.9470300000000001E-002  -8.4588600000000003E-003  
   520.39999999999998        8.7832499999999994E-002  -2.5963799999999999E-002  
   203.09999999999999       0.21147299999999999       -6.8636199999999994E-002  
   83.959999999999994       0.36536400000000002      -0.14187400000000000       
   36.200000000000003       0.34088400000000002      -0.19931900000000000       
   15.830000000000000       0.10213300000000000       -1.9566199999999999E-002  
   6.3339999999999996        3.1167500000000002E-003  0.49974099999999999       
   2.6940000000000000        1.0575100000000000E-003  0.56373600000000001       
  0.97680000000000000       -3.7800000000000003E-004   7.9032500000000006E-002  
  0.43130000000000002        1.5613600000000000E-004  -8.3509099999999996E-003  
  0.16250000000000001       -5.1412600000000003E-005   2.3245599999999998E-003  
   5.9100000000000000E-002   0.0000000000000000        0.0000000000000000       
   10    5                                                                      
   663.29999999999995        2.4044800000000001E-003   0.0000000000000000       
   156.80000000000001        1.9214800000000001E-002   0.0000000000000000       
   49.979999999999997        8.8509699999999997E-002   0.0000000000000000       
   18.420000000000002       0.25602000000000003        0.0000000000000000       
   7.2400000000000002       0.43692700000000001        0.0000000000000000      -
   2.9220000000000002       0.35033399999999998        0.0000000000000000       
   1.0220000000000000        5.8549499999999997E-002   1.0000000000000000       
  0.38179999999999997       -4.5842299999999999E-003   0.0000000000000000       
  0.13009999999999999        2.2696999999999999E-003   0.0000000000000000       
   4.1900000000000000E-002   0.0000000000000000        0.0000000000000000       
    3    3                                                                      
   1.0460000000000000        1.0000000000000000        0.0000000000000000       
  0.34399999999999997        0.0000000000000000        1.0000000000000000       
  0.13500000000000001        0.0000000000000000        0.0000000000000000       
    2    2                                                                      
  0.70599999999999996        1.0000000000000000        0.0000000000000000       
  0.31200000000000000        0.0000000000000000        1.0000000000000000       
FINISH                                                                          

********************************************************************************
 ONE- AND TWO-ELECTRON INTEGRALS OVER SYMMETRY-ADAPTED AOS ARE CALCULATED.

  SPHERICAL HARMONICS ARE USED.
  
  INTEGRALS LESS THAN  0.10E-13 ARE NEGLECTED.

  NUCLEAR REPULSION ENERGY :  335.8076510351 A.U.
  @MOLECU-I, ONE ELECTRON INTEGRALS (CPU/WALL):        0.34/       0.04 SECONDS.
  @TWOEL-I,   23905321 INTEGRALS OF SYMMETRY TYPE  I I I I
  @TWOEL-I,   46912732 INTEGRALS OF SYMMETRY TYPE  I J I J
  @TWOEL-I,   23900268 INTEGRALS OF SYMMETRY TYPE  I I J J
  @TWOEL-I, TOTAL NUMBER OF 2-E INTEGRALS   94718321.
  @MOLECU-I, TWO ELECTRON INTEGRALS (CPU/WALL):      371.69/      49.42 SECONDS.
 @CHECKOUT-I, Total execution time (CPU/WALL):      372.07/      49.47 seconds.
--executable xvmol finished with status     0 in       49.48 seconds (walltime).
 --invoking executable--
/usr/local/cfour/bin/xvmol2ja
 @GETMEM-I,  Allocated    9536 MB of main memory.
 @CHECKOUT-I, Total execution time (CPU/WALL):        0.12/       0.02 seconds.
--executable xvmol2ja finished with status     0 in        0.02 seconds (walltime).
 --invoking executable--
/usr/local/cfour/bin/xvscf
  There are  200 functions in the AO basis.

  There are 2 irreducible representations.

       Irrep        # of functions
         1                100
         2                100


  Parameters for SCF calculation: 
        SCF reference function:  RHF  
  Maximum number of iterations:  150
     Full symmetry point group: C2  
     Computational point group: C2  
        Initial density matrix: MOREAD                 
     SCF convergence tolerance: 10**(- 9)
  DIIS convergence acceleration:  ON
          Latest start for DIIS:   8
                     DIIS order:   6

  Memory information:    1952628 words required.
  Fock matrices are constructed from AO integral file.
 @GETMEM-I,  Allocated      14 MB of main memory.
  Initialization and symmetry analysis required      0.016 seconds.

  @INITGES-I, Occupancies from core Hamiltonian:

          Alpha population by irrep:  16   17
           Beta population by irrep:  16   17


 total no. of electrons in initial guess :   0.0000000000000000     
  --------------------------------------------------------------------
  Iteration         Total Energy            Largest Density Difference
  --------------------------------------------------------------------
       0           335.807651035090203              0.0000000000D+00
   current occupation vector 
    16 17
    16 17
       1         -1654.345254273740693              0.3943846546D+02
   current occupation vector 
    16 17
    16 17
       2         -1678.191135892854163              0.9939714351D+02
   current occupation vector 
    16 17
    16 17
       3         -1668.713537215115139              0.1039560916D+03
   current occupation vector 
    17 16
    17 16
       4         -1672.551686993741214              0.2279355290D+01
   current occupation vector 
    17 16
    17 16
       5         -1659.755442237345505              0.2487564264D+01
   current occupation vector 
    17 16
    17 16
       6         -1669.254117940008655              0.2219232658D+01
   current occupation vector 
    17 16
    17 16
       7         -1658.906016540438713              0.2240018336D+01
   current occupation vector 
    17 16
    17 16
       8         -1669.167835087548610              0.2240258709D+01
   current occupation vector 
    17 16
    17 16
       9         -1712.884225244999925              0.1203443874D+01
   current occupation vector 
    17 16
    17 16
      10         -1714.050734265564188              0.3038173589D+00
   current occupation vector 
    17 16
    17 16
      11         -1714.117762622877763              0.8707625224D-01
   current occupation vector 
    17 16
    17 16
      12         -1714.121607598335686              0.1685277442D-01
   current occupation vector 
    17 16
    17 16
      13         -1714.122170884022125              0.9196476778D-02
   current occupation vector 
    17 16
    17 16
      14         -1714.122244832458819              0.4686088078D-02
   current occupation vector 
    17 16
    17 16
      15         -1714.122260087383893              0.1506127716D-02
   current occupation vector 
    17 16
    17 16
      16         -1714.122265124299247              0.1442033023D-02
   current occupation vector 
    17 16
    17 16
      17         -1714.122265787589640              0.4711647550D-03
   current occupation vector 
    17 16
    17 16
      18         -1714.122265843521291              0.1364553051D-03
   current occupation vector 
    17 16
    17 16
      19         -1714.122265850071472              0.4882567127D-04
   current occupation vector 
    17 16
    17 16
      20         -1714.122265851496650              0.2969528360D-04
   current occupation vector 
    17 16
    17 16
      21         -1714.122265851591692              0.6863517327D-05
   current occupation vector 
    17 16
    17 16
      22         -1714.122265851597149              0.1178059859D-05
   current occupation vector 
    17 16
    17 16
      23         -1714.122265851618067              0.8629102467D-06
   current occupation vector 
    17 16
    17 16
      24         -1714.122265851605334              0.2750732855D-06
   current occupation vector 
    17 16
    17 16
      25         -1714.122265851603970              0.1244211312D-06
   current occupation vector 
    17 16
    17 16
      26         -1714.122265851597149              0.5309392026D-07
   current occupation vector 
    17 16
    17 16
      27         -1714.122265851577595              0.1253170645D-07
   current occupation vector 
    17 16
    17 16
      28         -1714.122265851600787              0.6113680229D-08
   current occupation vector 
    17 16
    17 16
      29         -1714.122265851607608              0.2251559938D-08
   current occupation vector 
    17 16
    17 16
      30         -1714.122265851594420              0.1058995891D-08
   current occupation vector 
    17 16
    17 16

  SCF has converged.

 Density matrix saved to file den.dat
 total electron number:   66.000000000000796     
     E(SCF)=     -1714.122265851617158              0.1929673088D-09


  Final occupancies:

     Alpha population by irrep:  17   16
      Beta population by irrep:  17   16


  Eigenvector printing suppressed.

 @PUTMOS-I, Writing converged MOs to NEWMOS. 
 @PUTMOS-I, Symmetry   1 Full Blocks 25 Partial Blocksize   0
 @PUTMOS-I, Symmetry   2 Full Blocks 25 Partial Blocksize   0
 @PUTFOCK-I, Writing converged Fock matrix to NEWFOCK. 
 @PUTFOCK-I, Symmetry   1 Full Blocks 25 Partial Blocksize   0
 @PUTFOCK-I, Symmetry   2 Full Blocks 25 Partial Blocksize   0



  ORBITAL EIGENVALUES (ALPHA)  (1H = 27.2113834 eV)

       MO #        E(hartree)               E(eV)           FULLSYM    COMPSYM
       ----   --------------------   --------------------   -------   ---------
    1     1        -104.8695983001       -2853.6468463475       E         A (1)
    2   101        -104.8695982966       -2853.6468462530       E         B (2)
    3     2         -92.0649179076       -2505.2137788726       E         A (1)
    4   102         -92.0649144947       -2505.2136860024       E         B (2)
    5     3         -10.5927981449        -288.2446915989       E         A (1)
    6   103         -10.5927981182        -288.2446908744       E         B (2)
    7     4          -9.0601771746        -246.5399547695       A         A (1)
    8   104          -9.0598714117        -246.5316345387       B         B (2)
    9   105          -8.0594848057        -219.3097310543       E         B (2)
   10     5          -8.0594845934        -219.3097252777       E         A (1)
   11   106          -8.0573973286        -219.2529279136       E         B (2)
   12     6          -8.0573971665        -219.2529235037       E         A (1)
   13   107          -8.0571966765        -219.2474678947       E         B (2)
   14     7          -8.0571963092        -219.2474578975       E         A (1)
   15     8          -6.7406999573        -183.4237709220       A         A (1)
   16   108          -6.7402917249        -183.4126623536       B         B (2)
   17     9          -6.7391903407        -183.3826921660       A         A (1)
   18   109          -6.7388532424        -183.3735192559       B         B (2)
   19   110          -6.7377480159        -183.3434445136       E         B (2)
   20    10          -6.7377425712        -183.3432963554       E         A (1)
   21    11          -1.1908822482         -32.4055534399       A         A (1)
   22   111          -1.1406166565         -31.0377571519       B         B (2)
   23    12          -1.0319263738         -28.0801441967       A         A (1)
   24   112          -0.8420037477         -22.9120868030       B         B (2)
   25    13          -0.6202182374         -16.8769962486       A         A (1)
   26   113          -0.5813362824         -15.8189644637       B         B (2)
   27    14          -0.5743374702         -15.6285171034       A         A (1)
   28    15          -0.5152944723         -14.0218754488       A         A (1)
   29   114          -0.5142413705         -13.9932190920       B         B (2)
   30   115          -0.4913645725         -13.3707097718       B         B (2)
   31    16          -0.4502326208         -12.2514524645       A         A (1)
   32   116          -0.4011884193         -10.9168918938       B         B (2)
   33    17          -0.3926071236         -10.6833829654       A         A (1)
  +++++++++++++++++++++++++++++++++++++++++++++++++++++++++++++++++++++++++++++
   34   117           0.0368543213           1.0028570658       B         B (2)
   35    18           0.0398528969           1.0844524565       A         A (1)
   36   118           0.0576579937           1.5689537715       B         B (2)
   37    19           0.0714718847           1.9448488555       A         A (1)
   38    20           0.0836261602           2.2755835085       A         A (1)
   39   119           0.0844547169           2.2981296827       B         B (2)
   40    21           0.1093934901           2.9767482018       A         A (1)
   41   120           0.1136027063           3.0912867956       B         B (2)
   42    22           0.1193033809           3.2464100391       A         A (1)
   43   121           0.1198376981           3.2609495486       B         B (2)
   44   122           0.1205679877           3.2808217387       B         B (2)
   45    23           0.1274725806           3.4687052643       A         A (1)
   46    24           0.1467077165           3.9921199211       A         A (1)
   47   123           0.1560820274           4.2472078899       B         B (2)
   48    25           0.1666849311           4.5357275674       A         A (1)
   49   124           0.1692886701           4.6065789068       B         B (2)
   50   125           0.2078237186           5.6551708877       B         B (2)
   51   126           0.2482066702           6.7540468651       B         B (2)
   52    26           0.2485752415           6.7640761993       A         A (1)
   53    27           0.2590653711           7.0495271390       A         A (1)
   54   127           0.2716420482           7.3917559215       B         B (2)
   55    28           0.2865522526           7.7974832110       A         A (1)
   56    29           0.3019987452           8.2178036412       A         A (1)
   57   128           0.3194006557           8.6913337013       B         B (2)
   58   129           0.3394155717           9.2359672524       B         B (2)
   59    30           0.3580151759           9.7420882151       A         A (1)
   60   130           0.3617339198           9.8432803815       B         B (2)
   61    31           0.3744581133          10.1895232876       A         A (1)
   62    32           0.3781564367          10.2901597841       A         A (1)
   63   131           0.4013199859          10.9204720033       B         B (2)
   64    33           0.4178554986          11.3704261786       A         A (1)
   65   132           0.4319799282          11.7547714470       B         B (2)
   66   133           0.4348444545          11.8327191704       B         B (2)
   67    34           0.4571723454          12.4402919702       A         A (1)
   68   134           0.4685705850          12.7504538377       B         B (2)
   69    35           0.4750276407          12.9261592559       A         A (1)
   70    36           0.4892933257          13.3143482796       A         A (1)
   71   135           0.4912892442          13.3686599843       B         B (2)
   72   136           0.4967955939          13.5184953778       B         B (2)
   73   137           0.5829556389          15.8630293961       B         B (2)
   74    37           0.6041896215          16.4408354377       A         A (1)
   75    38           0.6206440062          16.8885820065       A         A (1)
   76   138           0.6265581663          17.0495144861       B         B (2)
   77    39           0.6348175613          17.2742640489       A         A (1)
   78    40           0.6472805867          17.6134002122       A         A (1)
   79   139           0.6534611770          17.7815826256       B         B (2)
   80   140           0.6735630230          18.3285816639       B         B (2)
   81    41           0.6804861374          18.5169691828       A         A (1)
   82    42           0.6862151897          18.6728646228       A         A (1)
   83    43           0.6975248520          18.9806161790       A         A (1)
   84   141           0.6985676344          19.0089917318       B         B (2)
   85   142           0.7196195709          19.5818440446       B         B (2)
   86    44           0.7326178162          19.9355442826       A         A (1)
   87   143           0.7545252800          20.5316766779       B         B (2)
   88   144           0.7787581635          21.1910869635       B         B (2)
   89    45           0.7902090466          21.5026813333       A         A (1)
   90    46           0.7991244626          21.7452821370       A         A (1)
   91   145           0.8030153946          21.8511597793       B         B (2)
   92   146           0.8208809377          22.3373059224       B         B (2)
   93    47           0.8349064655          22.7189599364       A         A (1)
   94   147           0.8721595405          23.7326676412       B         B (2)
   95    48           0.8763103173          23.8456160204       A         A (1)
   96    49           0.8939302279          24.3250781630       A         A (1)
   97    50           0.9064591827          24.6660083558       A         A (1)
   98   148           0.9244256202          25.1548999757       B         B (2)
   99    51           0.9521232836          25.9085917153       A         A (1)
  100   149           0.9539339097          25.9578613541       B         B (2)
  101   150           0.9764510298          26.5705833442       B         B (2)
  102    52           0.9771426796          26.5894040898       A         A (1)
  103   151           0.9935414220          27.0356365573       B         B (2)
  104    53           1.0128666478          27.5615026876       A         A (1)
  105   152           1.0142283527          27.5985565611       B         B (2)
  106    54           1.0490505516          28.5461167643       A         A (1)
  107   153           1.0608653613          28.8676140808       B         B (2)
  108   154           1.0820616169          29.4443935206       B         B (2)
  109    55           1.0963948007          29.8344192784       A         A (1)
  110   155           1.1176401539          30.4125347320       B         B (2)
  111    56           1.1529417414          31.3731397618       A         A (1)
  112   156           1.1625775412          31.6353432047       B         B (2)
  113    57           1.1797806865          32.1034645892       A         A (1)
  114   157           1.2267186549          33.3807116411       B         B (2)
  115   158           1.2330957016          33.5542399063       B         B (2)
  116    58           1.2352247541          33.6121743690       A         A (1)
  117    59           1.2804414818          34.8425840818       A         A (1)
  118    60           1.2996054247          35.3640614807       A         A (1)
  119   159           1.3082993868          35.6006362160       B         B (2)
  120   160           1.3373741563          36.3918009169       B         B (2)
  121    61           1.3493444423          36.7175289578       A         A (1)
  122    62           1.3614330516          37.0464767392       A         A (1)
  123   161           1.3902412448          37.8303875317       B         B (2)
  124   162           1.4283919863          38.8685219840       B         B (2)
  125    63           1.4471054723          39.3777418264       A         A (1)
  126   163           1.4639063297          39.8349163988       B         B (2)
  127   164           1.5030098145          40.8989763151       B         B (2)
  128    64           1.5042840042          40.9336487806       A         A (1)
  129    65           1.5941634191          43.3793919996       A         A (1)
  130   165           1.6134810201          43.9050506472       B         B (2)
  131    66           1.6147724384          43.9401919264       A         A (1)
  132    67           1.6243643612          44.2012014144       A         A (1)
  133   166           1.6354863757          44.5038468137       B         B (2)
  134   167           1.6579624735          45.1154525288       B         B (2)
  135    68           1.8427407526          50.1435251257       A         A (1)
  136   168           1.8470026830          50.2594981475       B         B (2)
  137   169           2.0248656076          55.0993943814       B         B (2)
  138    69           2.0547950222          55.9138151572       A         A (1)
  139    70           2.0776473041          56.5356573625       A         A (1)
  140   170           2.1184513632          57.6459922594       B         B (2)
  141   171           2.1497375041          58.4973314343       B         B (2)
  142   172           2.1730499767          59.1316960646       B         B (2)
  143    71           2.1764310219          59.2236989806       A         A (1)
  144    72           2.2134126706          60.2300208026       A         A (1)
  145   173           2.2242152756          60.5239746272       B         B (2)
  146    73           2.2390491215          60.9276240954       A         A (1)
  147   174           2.2737547140          61.8720112806       B         B (2)
  148    74           2.2747333163          61.8986404016       A         A (1)
  149    75           2.3053323574          62.7312826405       A         A (1)
  150   175           2.3443855091          63.7939729269       B         B (2)
  151    76           2.3628582102          64.2966406773       A         A (1)
  152    77           2.3869208821          64.9514192685       A         A (1)
  153   176           2.3891014880          65.0107565704       B         B (2)
  154   177           2.4155850713          65.7314115109       B         B (2)
  155    78           2.4557655669          66.8247783823       A         A (1)
  156    79           2.4924690667          67.8235313861       A         A (1)
  157   178           2.4987275192          67.9938325360       B         B (2)
  158    80           2.5031418322          68.1139521011       A         A (1)
  159   179           2.5116564619          68.3456469529       B         B (2)
  160    81           2.5330888961          68.9288531367       A         A (1)
  161   180           2.5563402831          69.5615555447       B         B (2)
  162   181           2.5672636879          69.8587964998       B         B (2)
  163    82           2.5934091027          70.5702494076       A         A (1)
  164    83           2.6227913069          71.3697798315       A         A (1)
  165   182           2.6245691230          71.4181566655       B         B (2)
  166   183           2.6429444500          71.9181747344       B         B (2)
  167    84           2.6579822463          72.3273739743       A         A (1)
  168   184           2.6617899661          72.4309872980       B         B (2)
  169    85           2.7174594910          73.9458320846       A         A (1)
  170   185           2.7371446046          74.4814912575       B         B (2)
  171    86           2.7666411948          75.2841342826       A         A (1)
  172   186           2.7809355535          75.6731035567       B         B (2)
  173    87           2.8232647514          76.8249395914       A         A (1)
  174   187           2.8368638750          77.1949905565       B         B (2)
  175   188           2.8456789341          77.4348605086       B         B (2)
  176    88           2.8481508228          77.5021240208       A         A (1)
  177    89           2.9105892265          79.2011593621       A         A (1)
  178   189           2.9801366768          81.0936416964       B         B (2)
  179    90           2.9947548650          81.4914228217       A         A (1)
  180    91           3.0655449081          83.4177178235       A         A (1)
  181   190           3.0818763304          83.8621184182       B         B (2)
  182    92           3.0875012728          84.0151808821       A         A (1)
  183   191           3.0940572914          84.1935792186       B         B (2)
  184    93           3.1488399887          85.6842921982       A         A (1)
  185   192           3.1538656931          85.8210485667       B         B (2)
  186    94           3.1735489087          86.3566560946       A         A (1)
  187   193           3.1747833288          86.3902463730       B         B (2)
  188   194           3.2089017764          87.3186565295       B         B (2)
  189    95           3.2097551129          87.3418769967       A         A (1)
  190    96           3.2713439142          89.0177934821       A         A (1)
  191   195           3.2834075220          89.3460609390       B         B (2)
  192   196           3.3235082966          90.4372584931       B         B (2)
  193    97           3.3698130354          91.6972744923       A         A (1)
  194   197           3.9813895808         108.3391183467       B         B (2)
  195    98           4.0903202798         111.3032733621       A         A (1)
  196   198           4.1006324674         111.5838822537       B         B (2)
  197    99           5.4453963012         148.1767665169       A         A (1)
  198   199           6.0546894683         164.7564764887       B         B (2)
  199   200           6.7200549737         182.8619923584       B         B (2)
  200   100           6.8329428242         185.9338269409       A         A (1)


  VSCF finished.

 @CHECKOUT-I, Total execution time (CPU/WALL):       58.55/      25.73 seconds.
--executable xvscf finished with status     0 in       25.74 seconds (walltime).
 --invoking executable--
/usr/local/cfour/bin/xvtran
 @GETMEM-I,  Allocated    9536 MB of main memory.
  Partial RHF integral transformation
  Frozen-core orbitals requested within analytic derivative calculation
  Transformation of IIII integrals :
  1 pass through the AO integral file was required.
    23905321 AO integrals were read.
    13055474 MO integrals were written to HF2.
  Transformation of IIJJ integrals :
  1 pass through the AO integral file was required.
    23900268 AO integrals were read.
    13057480 MO integrals were written to HF2.
  Transformation of IJIJ integrals :
  1 pass through the AO integral file was required.
    46912732 AO integrals were read.
    25697122 MO integrals were written to HF2.
  Summary of active molecular orbitals: 
------------------------------------------------------------------------

  Index      Eigenvalue    Symmetry    Index      Eigenvalue    Symmetry
------------------------------------------------------------------------
     1      -104.8695983        1       101         2.7174595        1
     2       -92.0649179        1       102         2.7666412        1
     3       -10.5927981        1       103         2.8232648        1
     4        -9.0601772        1       104         2.8481508        1
     5        -8.0594846        1       105         2.9105892        1
     6        -8.0573972        1       106         2.9947549        1
     7        -8.0571963        1       107         3.0655449        1
     8        -6.7407000        1       108         3.0875013        1
     9        -6.7391903        1       109         3.1488400        1
    10        -6.7377426        1       110         3.1735489        1
    11        -1.1908822        1       111         3.2097551        1
    12        -1.0319264        1       112         3.2713439        1
    13        -0.6202182        1       113         3.3698130        1
    14        -0.5743375        1       114         4.0903203        1
    15        -0.5152945        1       115         5.4453963        1
    16        -0.4502326        1       116         6.8329428        1
    17        -0.3926071        1       117         0.0368543        2
    18      -104.8695983        2       118         0.0576580        2
    19       -92.0649145        2       119         0.0844547        2
    20       -10.5927981        2       120         0.1136027        2
    21        -9.0598714        2       121         0.1198377        2
    22        -8.0594848        2       122         0.1205680        2
    23        -8.0573973        2       123         0.1560820        2
    24        -8.0571967        2       124         0.1692887        2
    25        -6.7402917        2       125         0.2078237        2
    26        -6.7388532        2       126         0.2482067        2
    27        -6.7377480        2       127         0.2716420        2
    28        -1.1406167        2       128         0.3194007        2
    29        -0.8420037        2       129         0.3394156        2
    30        -0.5813363        2       130         0.3617339        2
    31        -0.5142414        2       131         0.4013200        2
    32        -0.4913646        2       132         0.4319799        2
    33        -0.4011884        2       133         0.4348445        2
    34         0.0398529        1       134         0.4685706        2
    35         0.0714719        1       135         0.4912892        2
    36         0.0836262        1       136         0.4967956        2
    37         0.1093935        1       137         0.5829556        2
    38         0.1193034        1       138         0.6265582        2
    39         0.1274726        1       139         0.6534612        2
    40         0.1467077        1       140         0.6735630        2
    41         0.1666849        1       141         0.6985676        2
    42         0.2485752        1       142         0.7196196        2
    43         0.2590654        1       143         0.7545253        2
    44         0.2865523        1       144         0.7787582        2
    45         0.3019987        1       145         0.8030154        2
    46         0.3580152        1       146         0.8208809        2
    47         0.3744581        1       147         0.8721595        2
    48         0.3781564        1       148         0.9244256        2
    49         0.4178555        1       149         0.9539339        2
    50         0.4571723        1       150         0.9764510        2
    51         0.4750276        1       151         0.9935414        2
    52         0.4892933        1       152         1.0142284        2
    53         0.6041896        1       153         1.0608654        2
    54         0.6206440        1       154         1.0820616        2
    55         0.6348176        1       155         1.1176402        2
    56         0.6472806        1       156         1.1625775        2
    57         0.6804861        1       157         1.2267187        2
    58         0.6862152        1       158         1.2330957        2
    59         0.6975249        1       159         1.3082994        2
    60         0.7326178        1       160         1.3373742        2
    61         0.7902090        1       161         1.3902412        2
    62         0.7991245        1       162         1.4283920        2
    63         0.8349065        1       163         1.4639063        2
    64         0.8763103        1       164         1.5030098        2
    65         0.8939302        1       165         1.6134810        2
    66         0.9064592        1       166         1.6354864        2
    67         0.9521233        1       167         1.6579625        2
    68         0.9771427        1       168         1.8470027        2
    69         1.0128666        1       169         2.0248656        2
    70         1.0490506        1       170         2.1184514        2
    71         1.0963948        1       171         2.1497375        2
    72         1.1529417        1       172         2.1730500        2
    73         1.1797807        1       173         2.2242153        2
    74         1.2352248        1       174         2.2737547        2
    75         1.2804415        1       175         2.3443855        2
    76         1.2996054        1       176         2.3891015        2
    77         1.3493444        1       177         2.4155851        2
    78         1.3614331        1       178         2.4987275        2
    79         1.4471055        1       179         2.5116565        2
    80         1.5042840        1       180         2.5563403        2
    81         1.5941634        1       181         2.5672637        2
    82         1.6147724        1       182         2.6245691        2
    83         1.6243644        1       183         2.6429445        2
    84         1.8427408        1       184         2.6617900        2
    85         2.0547950        1       185         2.7371446        2
    86         2.0776473        1       186         2.7809356        2
    87         2.1764310        1       187         2.8368639        2
    88         2.2134127        1       188         2.8456789        2
    89         2.2390491        1       189         2.9801367        2
    90         2.2747333        1       190         3.0818763        2
    91         2.3053324        1       191         3.0940573        2
    92         2.3628582        1       192         3.1538657        2
    93         2.3869209        1       193         3.1747833        2
    94         2.4557656        1       194         3.2089018        2
    95         2.4924691        1       195         3.2834075        2
    96         2.5031418        1       196         3.3235083        2
    97         2.5330889        1       197         3.9813896        2
    98         2.5934091        1       198         4.1006325        2
    99         2.6227913        1       199         6.0546895        2
   100         2.6579822        1       200         6.7200550        2
------------------------------------------------------------------------
  -104.86959830008192       -92.064917907578206       -10.592798144871750       -9.0601771745815043       -8.0594845934106516       -8.0573971665011257       -8.0571963091562964       -6.7406999572840700       -6.7391903406852762       -6.7377425712008563       -1.1908822481962698       -1.0319263737521718      -0.62021823736524295      -0.57433747023021942      -0.51529447226807346      -0.45023262082594739      -0.39260712358516831       -104.86959829660672       -92.064914494658794       -10.592798118244517       -9.0598714117084285       -8.0594848056971262       -8.0573973285596434       -8.0571966765448906       -6.7402917248819589       -6.7388532424243879       -6.7377480159136374       -1.1406166564816389      -0.84200374770341879      -0.58133628236240320      -0.51424137046991558      -0.49136457251070542      -0.40118841932038440        3.9852896876164223E-002   7.1471884650401801E-002   8.3626160238203448E-002  0.10939349014352495       0.11930338091956377       0.12747258062090971       0.14670771648848163       0.16668493110972979       0.24857524146572799       0.25906537111110095       0.28655225264962775       0.30199874517077524       0.35801517592577031       0.37445811327575751       0.37815643669643317       0.41785549861289356       0.45717234538599627       0.47502764067167214       0.48929332566030942       0.60418962152941125       0.62064400616043625       0.63481756127515099       0.64728058670567823       0.68048613738548314       0.68621518973692275       0.69752485200840841       0.73261781621300925       0.79020904660332181       0.79912446263183412       0.83490646552082459       0.87631031726380881       0.89393022785513532       0.90645918266120729       0.95212328364307852       0.97714267955077116        1.0128666478470532        1.0490505515535964        1.0963948006537014        1.1529417413526732        1.1797806865358262        1.2352247540987551        1.2804414817726972        1.2996054247170779        1.3493444422912169        1.3614330515524669        1.4471054722779553        1.5042840041938252        1.5941634191088274        1.6147724384481907        1.6243643612174443        1.8427407525972297        2.0547950221883888        2.0776473041258341        2.1764310219023080        2.2134126706189918        2.2390491214580170        2.2747333162629824        2.3053323573593012        2.3628582101882025        2.3869208821079324        2.4557655669335201        2.4924690666820308        2.5031418322184935        2.5330888960508315        2.5934091027344248        2.6227913069475761        2.6579822462948313        2.7174594910373808        2.7666411948254348        2.8232647514495359        2.8481508228213839        2.9105892264951452        2.9947548650417661        3.0655449080734107        3.0875012727969842        3.1488399887155585        3.1735489087492148        3.2097551128804822        3.2713439141821836        3.3698130353891607        4.0903202797878482        5.4453963011994153        6.8329428242475130        3.6854321262155702E-002   5.7657993657486556E-002   8.4454716942131525E-002  0.11360270627092692       0.11983769809247855       0.12056798768614277       0.15608202741710256       0.16928867007904808       0.20782371864689905       0.24820667019437273       0.27164204821372573       0.31940065572945270       0.33941557166154612       0.36173391983976338       0.40131998593418416       0.43197992818580250       0.43484445448548975       0.46857058497523557       0.49128924420188808       0.49679559392881084       0.58295563893010027       0.62655816631694261       0.65346117704474216       0.67356302303561089       0.69856763444857595       0.71961957085136175       0.75452527995639407       0.77875816352295901       0.80301539462849625       0.82088093773198823       0.87215954045297761       0.92442562018871322       0.95393390966391123       0.97645102983500554       0.99354142198111839        1.0142283527243017        1.0608653612532797        1.0820616169272457        1.1176401539382159        1.1625775411597570        1.2267186548512865        1.2330957016447803        1.3082993867914356        1.3373741563215418        1.3902412448340937        1.4283919862732355        1.4639063296859800        1.5030098144553556        1.6134810201243910        1.6354863756636409        1.6579624734857599        1.8470026829845101        2.0248656075808795        2.1184513632420621        2.1497375041303810        2.1730499767470297        2.2242152755540245        2.2737547140130934        2.3443855091492565        2.3891014879615997        2.4155850713178033        2.4987275191612017        2.5116564618653014        2.5563402831159032        2.5672636878782806        2.6245691229902151        2.6429444500195847        2.6617899661053714        2.7371446046173693        2.7809355534888529        2.8368638750097608        2.8456789340834892        2.9801366767847175        3.0818763304116832        3.0940572914282423        3.1538656930856894        3.1747833288400717        3.2089017763592662        3.2834075219780932        3.3235082966459184        3.9813895807543056        4.1006324674277534        6.0546894682585632        6.7200549736978097     
 @CHECKOUT-I, Total execution time (CPU/WALL):       29.79/      13.91 seconds.
--executable xvtran finished with status     0 in       13.92 seconds (walltime).
 --invoking executable--
/usr/local/cfour/bin/xintprc
 @GETMEM-I,  Allocated    9536 MB of main memory.
  @GMOIAA-I, Processing MO integrals for spin case AA.
  @GMOIAA-I, Generation of integral list completed.
                      TYPE                NUMBER
                      ----               --------
                      PPPP                     0
                      PPPH              38654112
                      PPHH               7595536
                      PHPH               3935568
                      PHHH               1545827
                      HHHH                 79033

                     TOTAL              51810076

  @FORMT2-I, Second-order MP correlation energies:
            ------------------------------------------------
            E(SCF)                  =  -1714.122265851617 a.u.
            E2(AA)                  =     -0.094228800886 a.u.
            E2(AB)                  =     -0.551595363718 a.u.
            E2(TOT)                 =     -0.740052965489 a.u.
            Total MP2 energy        =  -1714.862318817106 a.u.
            ------------------------------------------------
   Largest T2 amplitudes for spin case AB:
       _       _                 _       _                 _       _
   i   j   a   b             i   j   a   b             i   j   a   b
-----------------------------------------------------------------------------
[ 17  17 117 117]-0.01601 [ 33  33  34  34]-0.01419 [ 13  13  34  34]-0.01352
[ 14  14 117 117]-0.01246 [ 33  33 117 117]-0.01210 [ 30  30 117 117]-0.01205
[ 30  30  34  34]-0.01203 [ 31  31 117 117]-0.01101 [ 29  29 117 117]-0.01059
[ 29  29  34  34]-0.01003 [ 13  13 117 117]-0.00976 [ 13  13  36  34] 0.00953
[ 13  13  34  36] 0.00953 [ 30  30 127 127]-0.00947 [ 17  17  34  34]-0.00940
-----------------------------------------------------------------------------
   Norm of T2AB vector ( 15185561 symmetry allowed elements):  0.4652313287.
-----------------------------------------------------------------------------
 @CHECKOUT-I, Total execution time (CPU/WALL):        9.71/       4.43 seconds.
--executable xintprc finished with status     0 in        4.47 seconds (walltime).
  calling xecc 
 --invoking executable--
/usr/local/cfour/bin/xecc
 @GETMEM-I,  Allocated    9536 MB of main memory.
 CCSD(T) energy will be calculated.
 AO based algorithm is used. 
   Frozen core orbitals in analytic derivative calculation
 Largest T2 amplitudes for spin case AB:
        _       _                 _       _                 _       _
    i   j   a   b             i   j   a   b             i   j   a   b
 -----------------------------------------------------------------------------
 [ 17  17 117 117]-0.01601 [ 33  33  34  34]-0.01419 [ 13  13  34  34]-0.01352
 [ 14  14 117 117]-0.01246 [ 33  33 117 117]-0.01210 [ 30  30 117 117]-0.01205
 [ 30  30  34  34]-0.01203 [ 31  31 117 117]-0.01101 [ 29  29 117 117]-0.01059
 [ 29  29  34  34]-0.01003 [ 13  13 117 117]-0.00976 [ 13  13  36  34] 0.00953
 [ 13  13  34  36] 0.00953 [ 30  30 127 127]-0.00947 [ 17  17  34  34]-0.00940
 -----------------------------------------------------------------------------
 Norm of T2AB vector ( 15185561 symmetry allowed elements):  0.4652313287.
 -----------------------------------------------------------------------------
 The total correlation energy is -0.740052965489 a.u.
 Resorts of amplitudes and integrals (CPU/WALL):       0.86/       0.35 seconds.
 Starting iterative solution of the CC equations.
 The DIIS procedure is used to accelerate convergence.
 5 expansion vectors are used in the DIIS extrapolation.
 Convergence criterium is 10**(-9).
 Maximum number of iterations is 100.
 >>>>>>>>>>>>>>>>>>>>>>>>>>>>>>>>>>>>>>>>>>>>>>>>>>>>>>>>>>>>>>>>>>>>>>>>>>>>>>>
 Iteration Nr.   1 started:
 Generation of Intermediates required (CPU/WALL):     35.06/       5.78 seconds.
 Transformation of t(ab,ij) amplitudes required    4.1 seconds.
 Contraction of t(mu nu,ij) with AO integrals required   68.2 seconds.
 Backtransformation of t(mu nu,ij) increments required    2.0 seconds.
 Construction of Hbar required (CPU/WALL):           104.06/      72.85 seconds.
   Frozen core orbitals in analytic derivative calculation
 Amplitude changes are:
 -------------------------------------------------------------------
              Spin      RMS          Max.      Max. change for
  Amplitude   Case     Change       Change       i    j    a    b
 -------------------------------------------------------------------
     T1        AA    0.0000209991 0.0174114935   17        34
     T2        AB    0.0000000045-0.0017176218   17   30  117   34
 -------------------------------------------------------------------
 The total correlation energy is -0.765261838387 a.u.
 Convergence information after     1 iterations: 
 Largest element of residual vector :  0.17411494E-01.
 Largest element of DIIS residual   :  0.17411494E-01.
 Iteration Nr.   1 required (CPU/WALL):              145.74/      79.80 seconds.
 >>>>>>>>>>>>>>>>>>>>>>>>>>>>>>>>>>>>>>>>>>>>>>>>>>>>>>>>>>>>>>>>>>>>>>>>>>>>>>>
 Iteration Nr.   2 started:
 Generation of Intermediates required (CPU/WALL):     33.51/       5.26 seconds.
 Transformation of t(ab,ij) amplitudes required    3.4 seconds.
 Contraction of t(mu nu,ij) with AO integrals required   64.5 seconds.
 Backtransformation of t(mu nu,ij) increments required    2.2 seconds.
 Construction of Hbar required (CPU/WALL):           104.14/      69.25 seconds.
   Frozen core orbitals in analytic derivative calculation
 Amplitude changes are:
 -------------------------------------------------------------------
              Spin      RMS          Max.      Max. change for
  Amplitude   Case     Change       Change       i    j    a    b
 -------------------------------------------------------------------
     T1        AA    0.0000025550 0.0013469399   15        34
     T2        AB    0.0000000020-0.0033413395   33   33   34   34
 -------------------------------------------------------------------
 The total correlation energy is -0.784709491794 a.u.
 Convergence information after     2 iterations: 
 Largest element of residual vector : -0.33413395E-02.
 Largest element of DIIS residual   : -0.32932999E-02.
 Iteration Nr.   2 required (CPU/WALL):              147.35/      76.06 seconds.
 >>>>>>>>>>>>>>>>>>>>>>>>>>>>>>>>>>>>>>>>>>>>>>>>>>>>>>>>>>>>>>>>>>>>>>>>>>>>>>>
 Iteration Nr.   3 started:
 Generation of Intermediates required (CPU/WALL):     33.11/       5.29 seconds.
 Transformation of t(ab,ij) amplitudes required    3.2 seconds.
 Contraction of t(mu nu,ij) with AO integrals required   64.5 seconds.
 Backtransformation of t(mu nu,ij) increments required    2.0 seconds.
 Construction of Hbar required (CPU/WALL):           104.08/      69.29 seconds.
   Frozen core orbitals in analytic derivative calculation
 Amplitude changes are:
 -------------------------------------------------------------------
              Spin      RMS          Max.      Max. change for
  Amplitude   Case     Change       Change       i    j    a    b
 -------------------------------------------------------------------
     T1        AA    0.0000049963 0.0060725260   17        34
     T2        AB    0.0000000006-0.0006157297   17   17  117  117
 -------------------------------------------------------------------
 The total correlation energy is -0.785915581276 a.u.
 Convergence information after     3 iterations: 
 Largest element of residual vector :  0.60725260E-02.
 Largest element of DIIS residual   :  0.39313682E-02.
 Iteration Nr.   3 required (CPU/WALL):              148.49/      76.36 seconds.
 >>>>>>>>>>>>>>>>>>>>>>>>>>>>>>>>>>>>>>>>>>>>>>>>>>>>>>>>>>>>>>>>>>>>>>>>>>>>>>>
 Iteration Nr.   4 started:
 Generation of Intermediates required (CPU/WALL):     33.80/       5.29 seconds.
 Transformation of t(ab,ij) amplitudes required    3.3 seconds.
 Contraction of t(mu nu,ij) with AO integrals required   64.6 seconds.
 Backtransformation of t(mu nu,ij) increments required    2.1 seconds.
 Construction of Hbar required (CPU/WALL):           104.78/      69.46 seconds.
   Frozen core orbitals in analytic derivative calculation
 Amplitude changes are:
 -------------------------------------------------------------------
              Spin      RMS          Max.      Max. change for
  Amplitude   Case     Change       Change       i    j    a    b
 -------------------------------------------------------------------
     T1        AA    0.0000015023 0.0021537452   17        34
     T2        AB    0.0000000002-0.0006284800   33   33   34   34
 -------------------------------------------------------------------
 The total correlation energy is -0.788123037156 a.u.
 Convergence information after     4 iterations: 
 Largest element of residual vector :  0.21537452E-02.
 Largest element of DIIS residual   :  0.13706165E-02.
 Iteration Nr.   4 required (CPU/WALL):              152.59/      76.90 seconds.
 >>>>>>>>>>>>>>>>>>>>>>>>>>>>>>>>>>>>>>>>>>>>>>>>>>>>>>>>>>>>>>>>>>>>>>>>>>>>>>>
 Iteration Nr.   5 started:
 Generation of Intermediates required (CPU/WALL):     33.24/       5.23 seconds.
 Transformation of t(ab,ij) amplitudes required    3.4 seconds.
 Contraction of t(mu nu,ij) with AO integrals required   64.5 seconds.
 Backtransformation of t(mu nu,ij) increments required    2.0 seconds.
 Construction of Hbar required (CPU/WALL):           105.33/      69.40 seconds.
   Frozen core orbitals in analytic derivative calculation
 Amplitude changes are:
 -------------------------------------------------------------------
              Spin      RMS          Max.      Max. change for
  Amplitude   Case     Change       Change       i    j    a    b
 -------------------------------------------------------------------
     T1        AA    0.0000012347 0.0019712775   17        34
     T2        AB    0.0000000001-0.0001463866   17   17  117  117
 -------------------------------------------------------------------
 The total correlation energy is -0.788470217089 a.u.
 Convergence information after     5 iterations: 
 Largest element of residual vector :  0.19712775E-02.
 Largest element of DIIS residual   :  0.10104628E-02.
 Iteration Nr.   5 required (CPU/WALL):              155.24/      77.08 seconds.
 Largest T1 amplitudes for spin case AA:
    i       a                 i       a                 i       a    
 -----------------------------------------------------------------------------
 [ 17      34    ] 0.03101 [ 33     117    ] 0.02657 [ 13      34    ] 0.01769
 [ 17      36    ]-0.01585 [ 32     122    ]-0.01509 [ 33     119    ]-0.01297
 [ 30     117    ]-0.01228 [ 32     120    ] 0.01182 [ 33     121    ] 0.01175
 [ 29     117    ]-0.01065 [ 32     118    ] 0.01037 [ 15      42    ]-0.01008
 [ 14      43    ]-0.00994 [ 32     124    ]-0.00954 [ 13      36    ]-0.00913
 -----------------------------------------------------------------------------
 Norm of T1AA vector (     2755 symmetry allowed elements):  0.0824563900.
 -----------------------------------------------------------------------------
 Largest T2 amplitudes for spin case AB:
        _       _                 _       _                 _       _
    i   j   a   b             i   j   a   b             i   j   a   b
 -----------------------------------------------------------------------------
 [ 17  17 117 117]-0.02341 [ 33  33  34  34]-0.02015 [ 33  33 117 117]-0.01486
 [ 30  30  34  34]-0.01445 [ 13  13  34  34]-0.01428 [ 14  14 117 117]-0.01416
 [ 30  30 117 117]-0.01346 [ 31  31 117 117]-0.01332 [ 17  17 119 117] 0.01217
 [ 17  17 117 119] 0.01217 [ 16  16 117 117]-0.01207 [ 33  33  36  34] 0.01149
 [ 33  33  34  36] 0.01149 [ 17  17  34  34]-0.01141 [ 13  13 117 117]-0.01135
 -----------------------------------------------------------------------------
 Norm of T2AB vector ( 15185561 symmetry allowed elements):  0.5240252661.
 -----------------------------------------------------------------------------
 >>>>>>>>>>>>>>>>>>>>>>>>>>>>>>>>>>>>>>>>>>>>>>>>>>>>>>>>>>>>>>>>>>>>>>>>>>>>>>>
 Iteration Nr.   6 started:
 Generation of Intermediates required (CPU/WALL):     33.70/       5.29 seconds.
 Transformation of t(ab,ij) amplitudes required    3.4 seconds.
 Contraction of t(mu nu,ij) with AO integrals required   64.6 seconds.
 Backtransformation of t(mu nu,ij) increments required    2.1 seconds.
 Construction of Hbar required (CPU/WALL):           105.37/      69.55 seconds.
   Frozen core orbitals in analytic derivative calculation
 Amplitude changes are:
 -------------------------------------------------------------------
              Spin      RMS          Max.      Max. change for
  Amplitude   Case     Change       Change       i    j    a    b
 -------------------------------------------------------------------
     T1        AA    0.0000004600 0.0007653541   17        34
     T2        AB    0.0000000001 0.0000909529   33   33  117  117
 -------------------------------------------------------------------
 The total correlation energy is -0.788551575100 a.u.
 Convergence information after     6 iterations: 
 Largest element of residual vector :  0.76535412E-03.
 Largest element of DIIS residual   :  0.30344305E-03.
 Iteration Nr.   6 required (CPU/WALL):              155.85/      77.24 seconds.
 >>>>>>>>>>>>>>>>>>>>>>>>>>>>>>>>>>>>>>>>>>>>>>>>>>>>>>>>>>>>>>>>>>>>>>>>>>>>>>>
 Iteration Nr.   7 started:
 Generation of Intermediates required (CPU/WALL):     33.83/       5.34 seconds.
 Transformation of t(ab,ij) amplitudes required    4.0 seconds.
 Contraction of t(mu nu,ij) with AO integrals required   64.5 seconds.
[...]
 --invoking executable--
/usr/local/cfour/bin/xvtran
 @GETMEM-I,  Allocated    9536 MB of main memory.
  Partial RHF integral transformation
  Frozen-core orbitals requested within analytic derivative calculation
  Transformation of IIII integrals :
  1 pass through the AO integral file was required.
    23905322 AO integrals were read.
    13055474 MO integrals were written to HF2.
  Transformation of IIJJ integrals :
  1 pass through the AO integral file was required.
    23900266 AO integrals were read.
    13057480 MO integrals were written to HF2.
  Transformation of IJIJ integrals :
  1 pass through the AO integral file was required.
    46912730 AO integrals were read.
    25697122 MO integrals were written to HF2.
  Summary of active molecular orbitals: 
------------------------------------------------------------------------

  Index      Eigenvalue    Symmetry    Index      Eigenvalue    Symmetry
------------------------------------------------------------------------
     1      -104.8698905        1       101         2.6874189        1
     2       -92.0692429        1       102         2.7486494        1
     3       -10.5925766        1       103         2.8048327        1
     4        -9.0634526        1       104         2.8270549        1
     5        -8.0592330        1       105         2.8727426        1
     6        -8.0571714        1       106         2.9681722        1
     7        -8.0569810        1       107         3.0652894        1
     8        -6.7437987        1       108         3.0853884        1
     9        -6.7424324        1       109         3.1445324        1
    10        -6.7409748        1       110         3.1689124        1
    11        -1.1804404        1       111         3.2022586        1
    12        -1.0283430        1       112         3.2655955        1
    13        -0.6127605        1       113         3.3616881        1
    14        -0.5687577        1       114         4.0393419        1
    15        -0.5123141        1       115         5.3556365        1
    16        -0.4508878        1       116         6.8022315        1
    17        -0.3957056        1       117         0.0306736        2
    18      -104.8698905        2       118         0.0562543        2
    19       -92.0692397        2       119         0.0831360        2
    20       -10.5925766        2       120         0.1101433        2
    21        -9.0631819        2       121         0.1169065        2
    22        -8.0592332        2       122         0.1190699        2
    23        -8.0571716        2       123         0.1560450        2
    24        -8.0569814        2       124         0.1673474        2
    25        -6.7434776        2       125         0.2075964        2
    26        -6.7421300        2       126         0.2479238        2
    27        -6.7409787        2       127         0.2714502        2
    28        -1.1338528        2       128         0.3178277        2
    29        -0.8457388        2       129         0.3373587        2
    30        -0.5755887        2       130         0.3591606        2
    31        -0.5115163        2       131         0.3984110        2
    32        -0.4902792        2       132         0.4309504        2
    33        -0.4034416        2       133         0.4339983        2
    34         0.0338064        1       134         0.4659977        2
    35         0.0712539        1       135         0.4898231        2
    36         0.0821646        1       136         0.4954464        2
    37         0.1090510        1       137         0.5835080        2
    38         0.1185217        1       138         0.6258680        2
    39         0.1275371        1       139         0.6526410        2
    40         0.1470206        1       140         0.6734124        2
    41         0.1666714        1       141         0.6989080        2
    42         0.2482019        1       142         0.7190056        2
    43         0.2593938        1       143         0.7519349        2
    44         0.2837587        1       144         0.7757714        2
    45         0.3025859        1       145         0.8000531        2
    46         0.3574899        1       146         0.8180304        2
    47         0.3750199        1       147         0.8722549        2
    48         0.3763212        1       148         0.9249823        2
    49         0.4165628        1       149         0.9506622        2
    50         0.4558094        1       150         0.9709336        2
    51         0.4749210        1       151         0.9878599        2
    52         0.4894997        1       152         1.0074316        2
    53         0.6026825        1       153         1.0530788        2
    54         0.6199010        1       154         1.0749398        2
    55         0.6346400        1       155         1.1114839        2
    56         0.6482614        1       156         1.1525813        2
    57         0.6808870        1       157         1.2192285        2
    58         0.6858287        1       158         1.2244974        2
    59         0.6971422        1       159         1.3017904        2
    60         0.7328652        1       160         1.3258577        2
    61         0.7911208        1       161         1.3821765        2
    62         0.7954164        1       162         1.4188967        2
    63         0.8287932        1       163         1.4531918        2
    64         0.8718402        1       164         1.4942979        2
    65         0.8943405        1       165         1.6046640        2
    66         0.9073105        1       166         1.6288247        2
    67         0.9489412        1       167         1.6532322        2
    68         0.9712890        1       168         1.8426764        2
    69         1.0045520        1       169         2.0246746        2
    70         1.0417836        1       170         2.1148826        2
    71         1.0877149        1       171         2.1480664        2
    72         1.1452912        1       172         2.1729107        2
    73         1.1779040        1       173         2.2179455        2
    74         1.2300790        1       174         2.2722632        2
    75         1.2726300        1       175         2.3410065        2
    76         1.2920930        1       176         2.3872864        2
    77         1.3426748        1       177         2.4137784        2
    78         1.3536742        1       178         2.4903411        2
    79         1.4371419        1       179         2.5014128        2
    80         1.4920585        1       180         2.5523965        2
    81         1.5828427        1       181         2.5638998        2
    82         1.6040838        1       182         2.6184640        2
    83         1.6166181        1       183         2.6441573        2
    84         1.8384410        1       184         2.6635049        2
    85         2.0546294        1       185         2.7156367        2
    86         2.0772379        1       186         2.7517912        2
    87         2.1719413        1       187         2.8224097        2
    88         2.2095710        1       188         2.8327671        2
    89         2.2363665        1       189         2.9580342        2
    90         2.2782174        1       190         3.0807839        2
    91         2.3120968        1       191         3.0929331        2
    92         2.3599598        1       192         3.1477640        2
    93         2.3832888        1       193         3.1717548        2
    94         2.4516762        1       194         3.2032052        2
    95         2.4830026        1       195         3.2732522        2
    96         2.4961753        1       196         3.3175774        2
    97         2.5306004        1       197         3.9661875        2
    98         2.5908572        1       198         4.0477093        2
    99         2.6232860        1       199         5.9987440        2
   100         2.6576410        1       200         6.7143267        2
------------------------------------------------------------------------
  -104.86989050459320       -92.069242930590036       -10.592576644639607       -9.0634526192148073       -8.0592330354909656       -8.0571714224180937       -8.0569810138318232       -6.7437986676610553       -6.7424324406976108       -6.7409747633202857       -1.1804404429933826       -1.0283430386488051      -0.61276049712316039      -0.56875772330439467      -0.51231414320886903      -0.45088782619059897      -0.39570561031252566       -104.86989050154943       -92.069239734695003       -10.592576620212132       -9.0631819256814303       -8.0592332096367496       -8.0571715701307962       -8.0569813714943912       -6.7434776261672535       -6.7421300394039463       -6.7409786523133182       -1.1338527646841996      -0.84573881937801598      -0.57558865024631001      -0.51151630509548418      -0.49027918542133864      -0.40344160677187291        3.3806405090096324E-002   7.1253858639860806E-002   8.2164605169520358E-002  0.10905103002179840       0.11852172823718693       0.12753708983751388       0.14702057256158782       0.16667136485336098       0.24820194191491268       0.25939379583502870       0.28375873372868293       0.30258585399783144       0.35748989015349852       0.37501986120955733       0.37632118378983170       0.41656282002141587       0.45580936995964338       0.47492104696308951       0.48949971068429349       0.60268250204080087       0.61990102208710851       0.63464000274919030       0.64826136918197708       0.68088698623145993       0.68582865838589335       0.69714220127473114       0.73286516025692616       0.79112079868606666       0.79541644304544978       0.82879323674698879       0.87184020263816653       0.89434046252296628       0.90731048464095254       0.94894115765468823       0.97128902964550212        1.0045519733958823        1.0417835824255712        1.0877148915128665        1.1452911753512365        1.1779040196081580        1.2300790171693508        1.2726300489939046        1.2920929798186120        1.3426748151258272        1.3536741788440170        1.4371418838920567        1.4920584729549957        1.5828426622487914        1.6040838339315555        1.6166181154379349        1.8384410291787587        2.0546294106804659        2.0772378585179587        2.1719412566469876        2.2095710312832879        2.2363665398784272        2.2782173505773207        2.3120967655893359        2.3599598352185702        2.3832888377790358        2.4516762031819175        2.4830026061701447        2.4961753247125991        2.5306003617602371        2.5908572461221206        2.6232860329813010        2.6576410195385192        2.6874188886917802        2.7486493826448593        2.8048327330741070        2.8270548928176571        2.8727426186954204        2.9681721733332327        3.0652893712908567        3.0853884040786186        3.1445324246731086        3.1689124430950599        3.2022585889264690        3.2655954796685593        3.3616881194821073        4.0393418729023338        5.3556365250167115        6.8022314870726062        3.0673647824170903E-002   5.6254306425895406E-002   8.3135988583695933E-002  0.11014332527349187       0.11690651588758480       0.11906988772304572       0.15604502787991223       0.16734739791882633       0.20759641453509203       0.24792377062441712       0.27145017891342266       0.31782765265358431       0.33735870346085656       0.35916058855706678       0.39841104705504521       0.43095042486531632       0.43399833072643218       0.46599772642539439       0.48982311823579994       0.49544640048602723       0.58350797427862666       0.62586798996007587       0.65264104518553068       0.67341239965588817       0.69890798243942376       0.71900559224766558       0.75193493174512527       0.77577144361519279       0.80005312189083655       0.81803036930628825       0.87225485473592435       0.92498232018624760       0.95066220017346725       0.97093355513830926       0.98785993201845002        1.0074316063237223        1.0530788281757977        1.0749398338714571        1.1114838608542157        1.1525812530030866        1.2192284850665558        1.2244974481051196        1.3017904225919537        1.3258577420065647        1.3821765429563049        1.4188966650902062        1.4531917643340557        1.4942979431214589        1.6046639818422506        1.6288247247014196        1.6532321834188326        1.8426763565486866        2.0246746167657972        2.1148826037028137        2.1480664188688596        2.1729107402725196        2.2179454941640024        2.2722632199110615        2.3410065325368947        2.3872864353018657        2.4137784070837811        2.4903411389900456        2.5014127627820897        2.5523965331312564        2.5638997839243949        2.6184640270030553        2.6441573272171244        2.6635048957074536        2.7156367446812211        2.7517911768683918        2.8224096694291161        2.8327671212082057        2.9580341588426404        3.0807839111852324        3.0929330712483245        3.1477639767934908        3.1717547793358167        3.2032051625727131        3.2732522020130879        3.3175773717970705        3.9661875311764803        4.0477092935776984        5.9987440319443355        6.7143266539474347     
 @CHECKOUT-I, Total execution time (CPU/WALL):       30.45/      14.12 seconds.
--executable xvtran finished with status     0 in       14.14 seconds (walltime).
 --invoking executable--
/usr/local/cfour/bin/xintprc
 @GETMEM-I,  Allocated    9536 MB of main memory.
  @GMOIAA-I, Processing MO integrals for spin case AA.
  @GMOIAA-I, Generation of integral list completed.
                      TYPE                NUMBER
                      ----               --------
                      PPPP                     0
                      PPPH              38654112
                      PPHH               7595536
                      PHPH               3935568
                      PHHH               1545827
                      HHHH                 79033

                     TOTAL              51810076

  @FORMT2-I, Second-order MP correlation energies:
            ------------------------------------------------
            E(SCF)                  =  -1714.121826476195 a.u.
            E2(AA)                  =     -0.093884578131 a.u.
            E2(AB)                  =     -0.552537177457 a.u.
            E2(TOT)                 =     -0.740306333719 a.u.
            Total MP2 energy        =  -1714.862132809913 a.u.
            ------------------------------------------------
   Largest T2 amplitudes for spin case AB:
       _       _                 _       _                 _       _
   i   j   a   b             i   j   a   b             i   j   a   b
-----------------------------------------------------------------------------
[ 17  17 117 117]-0.01727 [ 13  13  34  34]-0.01585 [ 33  33  34  34]-0.01574
[ 30  30  34  34]-0.01461 [ 14  14 117 117]-0.01438 [ 13  13 120 120]-0.01430
[ 30  30 117 117]-0.01403 [ 33  33 117 117]-0.01346 [ 31  31 117 117]-0.01262
[ 29  29 117 117]-0.01180 [ 29  29  34  34]-0.01142 [ 13  13 117 117]-0.01108
[ 17  17  34  34]-0.01090 [ 30  13 117  34] 0.01034 [ 13  30  34 117] 0.01034
-----------------------------------------------------------------------------
   Norm of T2AB vector ( 15185561 symmetry allowed elements):  0.4676649305.
-----------------------------------------------------------------------------
 @CHECKOUT-I, Total execution time (CPU/WALL):        9.96/       4.45 seconds.
--executable xintprc finished with status     0 in        4.48 seconds (walltime).
  calling xecc 
 --invoking executable--
/usr/local/cfour/bin/xecc
 @GETMEM-I,  Allocated    9536 MB of main memory.
 CCSD(T) energy will be calculated.
 AO based algorithm is used. 
   Frozen core orbitals in analytic derivative calculation
 Largest T2 amplitudes for spin case AB:
        _       _                 _       _                 _       _
    i   j   a   b             i   j   a   b             i   j   a   b
 -----------------------------------------------------------------------------
 [ 17  17 117 117]-0.01727 [ 13  13  34  34]-0.01585 [ 33  33  34  34]-0.01574
 [ 30  30  34  34]-0.01461 [ 14  14 117 117]-0.01438 [ 13  13 120 120]-0.01430
 [ 30  30 117 117]-0.01403 [ 33  33 117 117]-0.01346 [ 31  31 117 117]-0.01262
 [ 29  29 117 117]-0.01180 [ 29  29  34  34]-0.01142 [ 13  13 117 117]-0.01108
 [ 17  17  34  34]-0.01090 [ 30  13 117  34] 0.01034 [ 13  30  34 117] 0.01034
 -----------------------------------------------------------------------------
 Norm of T2AB vector ( 15185561 symmetry allowed elements):  0.4676649305.
 -----------------------------------------------------------------------------
 The total correlation energy is -0.740306333719 a.u.
 Resorts of amplitudes and integrals (CPU/WALL):       0.81/       0.37 seconds.
 Starting iterative solution of the CC equations.
 The DIIS procedure is used to accelerate convergence.
 5 expansion vectors are used in the DIIS extrapolation.
 Convergence criterium is 10**(-9).
 Maximum number of iterations is 100.
 >>>>>>>>>>>>>>>>>>>>>>>>>>>>>>>>>>>>>>>>>>>>>>>>>>>>>>>>>>>>>>>>>>>>>>>>>>>>>>>
 Iteration Nr.   1 started:
 Generation of Intermediates required (CPU/WALL):     33.98/       5.51 seconds.
 Transformation of t(ab,ij) amplitudes required    4.0 seconds.
 Contraction of t(mu nu,ij) with AO integrals required   64.9 seconds.
 Backtransformation of t(mu nu,ij) increments required    2.0 seconds.
 Construction of Hbar required (CPU/WALL):           103.82/      69.78 seconds.
   Frozen core orbitals in analytic derivative calculation
 Amplitude changes are:
 -------------------------------------------------------------------
              Spin      RMS          Max.      Max. change for
  Amplitude   Case     Change       Change       i    j    a    b
 -------------------------------------------------------------------
     T1        AA    0.0000213634 0.0185339357   17        34
     T2        AB    0.0000000046-0.0020432943   30   17   34  117
 -------------------------------------------------------------------
 The total correlation energy is -0.765819534890 a.u.
 Convergence information after     1 iterations: 
 Largest element of residual vector :  0.18533936E-01.
 Largest element of DIIS residual   :  0.18533936E-01.
 Iteration Nr.   1 required (CPU/WALL):              144.46/      76.49 seconds.
 >>>>>>>>>>>>>>>>>>>>>>>>>>>>>>>>>>>>>>>>>>>>>>>>>>>>>>>>>>>>>>>>>>>>>>>>>>>>>>>
 Iteration Nr.   2 started:
 Generation of Intermediates required (CPU/WALL):     33.22/       6.09 seconds.
 Transformation of t(ab,ij) amplitudes required    3.3 seconds.
 Contraction of t(mu nu,ij) with AO integrals required   65.6 seconds.
 Backtransformation of t(mu nu,ij) increments required    2.1 seconds.
 Construction of Hbar required (CPU/WALL):           102.41/      69.98 seconds.
   Frozen core orbitals in analytic derivative calculation
 Amplitude changes are:
 -------------------------------------------------------------------
              Spin      RMS          Max.      Max. change for
  Amplitude   Case     Change       Change       i    j    a    b
 -------------------------------------------------------------------
     T1        AA    0.0000025949 0.0014404494   15        34
     T2        AB    0.0000000020-0.0038213958   33   33   34   34
 -------------------------------------------------------------------
 The total correlation energy is -0.785563738252 a.u.
 Convergence information after     2 iterations: 
 Largest element of residual vector : -0.38213958E-02.
 Largest element of DIIS residual   : -0.37545796E-02.
 Iteration Nr.   2 required (CPU/WALL):              144.90/      77.58 seconds.
 >>>>>>>>>>>>>>>>>>>>>>>>>>>>>>>>>>>>>>>>>>>>>>>>>>>>>>>>>>>>>>>>>>>>>>>>>>>>>>>
