 --invoking executable--
/usr/local/cfour/bin/xjoda


   *************************************************************************
         <<<     CCCCCC     CCCCCC   |||     CCCCCC     CCCCCC   >>>
       <<<      CCC        CCC       |||    CCC        CCC         >>>
      <<<      CCC        CCC        |||   CCC        CCC            >>>
    <<<        CCC        CCC        |||   CCC        CCC              >>>
      <<<      CCC        CCC        |||   CCC        CCC            >>>
       <<<      CCC        CCC       |||    CCC        CCC         >>>
         <<<     CCCCCC     CCCCCC   |||     CCCCCC     CCCCCC   >>>
   *************************************************************************

     ****************************************************************
     * CFOUR Coupled-Cluster techniques for Computational Chemistry *
     ****************************************************************


   Department of Chemistry                Institut fuer Physikalische Chemie
   University of Florida                  Universitaet Mainz
   Gainesville, FL 32611, USA             D-55099 Mainz, Germany

   Department of Chemistry                Fakultaet fuer Chemie und Biowiss.
   Johns Hopkins University               Karlsruher Institut fuer Technologie
   Baltimore, MD 21218, USA               D-76131 Karlsruhe, Germany

   Department of Chemistry                Department of Physical Chemistry
   Southern Methodist University          Eotvos Lorand University
   Dallas, TX 75275, USA                  H-1053 Budapest, Hungary


                       Version 2.1

                     andrey-ThinkPad-T490s                             
                     Do 17. Jul 06:17:46 CEST 2025                     
                     integer*8 version is running

********************************************************************************
*                          Input from ZMAT file                                *
********************************************************************************
ZMAT Geometry optimization S2Cl2                                                
S                                                                               
S 1 B1*                                                                         
Cl 1 B2* 2 A2*                                                                  
Cl 2 B3* 1 A3* 3 D3*                                                            
                                                                                
B1=1.9803129346                                                                 
B2=2.0833571817                                                                 
A2=106.8063694274                                                               
B3=2.0833571817                                                                 
A3=106.8063694274                                                               
D3=-85.4990386241                                                               
                                                                                
*CFOUR(CALC=CCSD(T),BASIS=SPECIAL,FROZEN_CORE=ON                                
GEO_CONV=10,SCF_CONV=9,CC_CONV=9,LINEQ_CONV=9                                   
CC_PROG=ECC,ABCDTYPE=AOBASIS                                                    
MEM_UNIT=GB,MEMORY=10)                                                          
                                                                                
S:aug-cc-pVTZ                                                                   
S:aug-cc-pVTZ                                                                   
CL:aug-cc-pVTZ                                                                  
CL:aug-cc-pVTZ                                                                  
                                                                                
********************************************************************************
    -------------------------------------------------------------------
                    CFOUR Control Parameters 
    -------------------------------------------------------------------
        External           Internal           Value            Units
          Name               Name
    -------------------------------------------------------------------
       ABCDTYPE             IABCDT         AOBASIS     [  2]    ***   
       ANHARMONIC           IANHAR         OFF         [  0]    ***   
       ANH_ALGORIT          IANALG         STANDARD    [  0]    ***   
       ANH_DERIVAT          IANDER         SECOND      [  1]    ***   
       ANH_MODE             ANHMOD         VIBRATION   [  0]    ***   
       ANH_STEPSIZ          ICUBST             50000          x 10-6  
       ANH_SYMMETR          IANHSM         ABELIAN     [  0]    ***   
       AO_LADDERS           IAOLAD         SINGLEPASS  [  1]    ***   
       AV_SCF               IAVSCF         OFF         [  0]    ***   
       BASIS                IBASIS         SPECIAL     [  0]    ***   
       BOTHVECTORS          BOTHVC         OFF         [  0]    ***   
       BOX_POTENT           IPIAB          OFF         [  0]    ***   
       BREIT                IBREIT         OFF         [  0]    ***   
       BRUCK_CONV           IBRTOL          10D-  4             ***   
       BRUECKNER            IBRKNR         OFF         [  0]    ***   
       BUFFERSIZE           IBUFFS              4096            ***   
       CACHE_RECS           ICHREC             10               ***   
       CALCLEVEL            ICLLVL         CCSD(T)     [ 22]    ***   
       CCORBOPT             ICCORB         OFF         [  0]  x 0.01  
       CC_CONV              ICCCNV          10D-  9             ***   
       CC_EXPORDER          ICCEOR              5               ***   
       CC_EXTRAPOL          ICCEXT         DIIS        [  1]    ***   
       CC_GUESS             ICCGES         MP2         [  0]    ***   
       CC_MAXCYC            ICCCYC            100              cycles 
       CC_PROGRAM           ICCPRO         ECC         [  1]    ***   
       CHARGE               ICHRGE              0               ***   
       CHOLESKY             ICHOLE         OFF         [  0]    ***   
       CIS_CONV             ICISTL              5               ***   
       COMM_SIZE            IPSIZE            ***               ***   
       CONSTANT             ICONST         OLD         [  1]    ***   
       CONTINUUM            ICONTU         NONE        [  0]    ***   
       CONTRACTION          ICNTYP         GENERAL     [  1]    ***   
       COORDINATES          ICOORD         INTERNAL    [  0]    ***   
       CPHF_CONVER          ICPHFT          10D- 16             ***   
       CPHF_MAXCYC          ICPHFC             64              cycles 
       CUBIC                ICUBIC         OFF         [  0]    ***   
       CURVILINEAR          ICURVY         OFF         [  0]    ***   
       DBOC                 IDBOC          OFF         [  0]    ***   
       DCT                  IDCT           OFF         [  0]    ***   
       DERIV_LEV            IDRLVL         FIRST       [  1]    ***   
       DEVMEM_SIZE          IDVMEM         *********           MByte  
       DIAG_MRCC            IEOMST          10D-  0             ***   
       DIFF_TYPE            IDIFTY         RELAXED     [  0]    ***   
       DIRECT               IDIRCT         OFF         [  0]    ***   
       DROPMO               IDRPMO      NONE         
       ECP                  IECP           OFF         [  0]    ***   
       EIGENVECTOR          IVEC                1               ***   
       EL_ANHARM            IELANH         OFF         [  0]    ***   
       EOMFOLLOW            IEOMSR         ENERGY      [  0]    ***   
       EOMIP                IEOMIP         OFF         [  0]    ***   
       EOMLEVEL             HBARFM         SAME        [  0]    ***   
       EOM_MRCC             IMRCCE         NEW         [  1]    ***   
       EOM_NONIT            EOMNON         OFF         [  0]    ***   
       EOM_NSING            IEOMSI          10D-  0             ***   
       EOM_NSTATES          IMRCCD         DAVIDSON    [  0]    ***   
       EOM_NTRIP            IEOMTR          10D-  0             ***   
       EOM_ORDER            IEXORD         ENERGY      [  0]    ***   
       EOM_PROPSTA          IEOMST              0               ***   
       ESTATE_CONV          IEXTOL          10D-  5             ***   
       ESTATE_DIAG          IEXDIG         ITERATIVE   [  0]    ***   
       ESTATE_LOCK          IESLOC         ON          [  1]    ***   
       ESTATE_MAXC          IEXMXC             40               ***   
       ESTATE_PROP          IEXPRP         OFF         [  0]    ***   
       EVAL_HESS            IRECAL              0            # of cyc.
       EXCITATION           IEXCIT              0               ***   
       EXCITE               IEXCIT         NONE        [  0]    ***   
       EXTERN_POT           IEXPOT         OFF         [  0]    ***   
       FCGRADNEW            IFCGNW         OFF         [  0]    ***   
       FC_FIELD             IFINFC              0             x 10-6  
       FD_CALTYPE           IFDCAL         GRADONLY    [  0]    ***   
       FD_PROJECT           IFDPRJ         OFF         [  1]    ***   
       FD_STEPSIZE          IDISFD              0            10-4 bohr
       FD_USEGROUP          IFDGRP         FULL        [  0]    ***   
       FILE_RECSIZ          IFLREC              4096           words  
       FINITE_PERT          IFIPER              0             x 10-6  
       FIXGEOM              IFIXGM         OFF         [  0]    ***   
       FOCK                 IFOCK          AO          [  1]    ***   
       FREQ_ALGORI          IVIALG         STANDARD    [  0]    ***   
       FROZEN_CORE          IFROCO         ON          [  1]    ***   
       GAMMA_ABCD           IGABCD         DIRECT      [  1]    ***   
       GAMMA_ABCI           IGABCI         STORE       [  0]    ***   
       GENBAS_1             IGNBS1              0               ***   
       GENBAS_2             IGNBS2              0               ***   
       GENBAS_3             IGNBS3              0               ***   
       GENBAS_4             IGNBS4              0               ***   
       GEO_CONV             ICONTL             10              H/bohr 
       GEO_MAXCYC           IOPTCY             50               ***   
       GEO_MAXSTEP          IMXSTP            300            millibohr
       GEO_METHOD           INR            NR          [  0]    ***   
       GIAO                 IGIAO          OFF         [  1]    ***   
       GIMIC                IGIMIC         OFF         [  0]    ***   
       GRID                 IGRID          OFF         [  0]    ***   
       GRID_ALGO            IGALGO         SERIAL      [  0]    ***   
       GUESS                IGUESS         MOREAD      [  0]    ***   
       HBAR                 IHBAR          OFF         [  0]    ***   
       HESS_TYPE            IHESTP         SCF         [  0]    ***   
       HF2_FILE             IHF2Fl         USE         [  1]    ***   
       HFSTABILITY          ISTABL         OFF         [  0]    ***   
       INCORE               INCORE         OFF         [  0]    ***   
       INPUT_MRCC           IMRCC          ON          [  1]    ***   
       INTEGRALS            INTTYP         VMOL        [  1]    ***   
       JODA_PRINT           IJPRNT              0               ***   
       KEYWORD_OUT          IDMPKW         NO          [  0]    ***   
       LINDEP_TOL           ILINDP              8               ***   
       LINEQ_CONV           IZTACN          10D-  9           cycles  
       LINEQ_EXPOR          ILMAXD              5               ***   
       LINEQ_MAXCY          ILMAXC            100               ***   
       LINEQ_TYPE           ILTYPE         DIIS        [  1]    ***   
       LOCK_ORBOCC          ILOCOC         OFF         [  0]    ***   
       MEMORY_SIZE          IMEMSZ         *********           words  
       MEM_UNIT             IMEMU          GB          [  3]    ***   
       MRCC                 IMRCCC         OFF         [  0]    ***   
       MULTIPLICTY          IMULTP              1               ***   
       NACOUPLING           IVCOUP         OFF         [  0]    ***   
       NEGEVAL              IDIE           ABORT       [  0]    ***   
       NEWNORM              INEWNO         OFF         [  0]    ***   
       NON-HF               INONHF         OFF         [  0]    ***   
       NTOP_TAMP            ITOPT2             15               ***   
       NUC_MODEL            INUCMO         POINT       [  0]    ***   
       OCCUPATION           IOCCU   ESTIMATED BY SCF 
       OPEN-SHELL           IOPEN          SPIN-ORBITAL[  0]    ***   
       OPTVIB               IOPTVB         OFF         [  0]    ***   
       ORBITALS             IORBTP         STANDARD    [  0]    ***   
       PARALLEL             IPARAL         ON          [  1]    ***   
       PARA_INT             IPINTS         ON          [  1]    ***   
       PARA_PRINT           IPPRIN              0               ***   
       PERT_ORB             IPTORB         CANONICAL   [  1]    ***   
       POINTS               IGRDFD              0               ***   
       PRINT                IPRNT               0               ***   
       PROPS                IPROPS         OFF         [  0]    ***   
       PROP_INTEGR          IINTYP         INTERNAL    [  0]    ***   
       PSI                  IPSI           OFF         [  0]    ***   
       QC_ALG               IQCALG         FLM         [  0]    ***   
       QC_LINALG            IQCLIN         TRIDIAG     [  2]    ***   
       QC_MAXCYC            IQCMAX          10D-100           cycles  
       QC_MAXSCFCY          IQCMSC          10D- 15           cycles  
       QC_RTRUST            IQCRTR          10D-  0           x 10-3  
       QC_SKIPSCF           IQCSKI         OFF         [  0]    ***   
       QC_START             IQCSTA          10D-  1             ***   
       QRHFGUESS            IQGUES         OFF         [  0]    ***   
       QUARTIC              IQUART         OFF         [  0]    ***   
       RAMAN_INT            IRAMIN         OFF         [  0]    ***   
       RAMAN_ORB            IRAMRE         UNRELAXED   [  0]    ***   
       RDO                  IRDOFM         ON          [  1]    ***   
       REDUCE_REPR          REDREP         Ir          [  0]    ***   
       REFERENCE            IREFNC         RHF         [  0]    ***   
       RELATIVIST           IRELAT         OFF         [  0]    ***   
       RELAX_DENS           IRDENS         ON          [  1]    ***   
       RESET_FLAGS          IRESET         OFF         [  0]    ***   
       RESTART_CC           ICCRES         OFF         [  0]    ***   
       ROT_EVEC             ROTVEC              0               ***   
       SAVE_INTS            ISVINT         OFF         [  0]    ***   
       SCALE_ON             ISTCRT              0               ***   
       SCF_CONV             ISCFCV          10D-  9             ***   
       SCF_DAMPING          IDAMP               0             x 10-3  
       SCF_EXPORDE          IRPPOR              6               ***   
       SCF_EXPSTAR          IRPPLS              8               ***   
       SCF_EXTRAPO          IRPP           ON          [  1]    ***   
       SCF_MAXCYC           ISCFCY            150              cycles 
       SCF_NOSTOP           ISCFST         OFF         [  0]    ***   
       SCF_PRINT            ISCFPR              0               ***   
       SCF_PROG             ISCFPR         SCF         [  0]    ***   
       SD_FIELD             IFINSD              0             x 10-6  
       SOPERT               IPERSO         OFF         [  0]    ***   
       SPHERICAL            IDFGHI         ON          [  1]    ***   
       SPINORBIT            ISOCAL         OFF         [  0]    ***   
       SPINROTATIO          ISRCON         OFF         [  0]    ***   
       SPIN_FLIP            ISPFLP         OFF         [  0]    ***   
       SPIN_ORBIT           ISPORB         OFF         [  0]    ***   
       SPIN_SCAL            ISCSMP         OFF         [  0]    ***   
       STEEPSCALE           ISTPSC              1000          x 10-3  
       SUBGROUP             ISUBGP         DEFAULT     [  0]    ***   
       SUBGRPAXIS           ISBXYZ         X           [  0]    ***   
       SYMMETRY             ISYM           ON          [  0]    ***   
       SYM_CHECK            ISYMCK         OVERRIDE    [  1]    ***   
       T3_EXTRAPOL          IT3EXT         OFF         [  0]    ***   
       T4_EXTRAPOL          IT4EXP         OFF         [  0]    ***   
       TAMP_SUM             IEVERY              5               ***   
       TESTSUITE            ITESTS         OFF         [  0]    ***   
       THERMOCH             ITHERM         OFF         [  0]    ***   
       TOL_CHOLESK          ITOLCH          10D-  4             ***   
       TRANGRAD             IRESRM         OFF         [  0]    ***   
       TRANS_INV            ITRAIN         USE         [  0]    ***   
       TREAT_PERT           ITREAT         SIMULTANEOUS[  0]    ***   
       TRIP_ALGORI          ITRALG         NORMAL      [  0]    ***   
       UIJ_THRESHO          IUIJTH              1               ***   
       UNITS                IUNITS         ANGSTROM    [  0]    ***   
       UNOS                 IUNOS          OFF         [  0]    ***   
       UPDATE_HESS          IHUPDT         ON          [  1]    ***   
       VIBPHASE             ISETPH         STANDARD    [  0]    ***   
       VIBRATION            IVIB           NO          [  0]    ***   
       VIB_ALGORIT          IGEALG         STANDARD    [  0]    ***   
       VNATORB              IVNORB         OFF         [  0]    ***   
       VTRAN                IVTRAN         PARTIAL     [  2]    ***   
       XFIELD               IXEFLD              0             x 10-6  
       XFORM_TOL            IXFTOL          10D- 11             ***   
       YFIELD               IYEFLD              0             x 10-6  
       ZFIELD               IZEFLD              0             x 10-6  
       ZSCALE_EXP           IZEXPS         OFF         [  0]    ***   
    -------------------------------------------------------------------
   4 entries found in Z-matrix 
   Job Title : ZMAT Geometry optimization S2Cl2                                                
   There are  6 unique internal coordinates.
   Of these,  6 will be optimized.
   User supplied Z-matrix: 
--------------------------------------------------------------------------------
       SYMBOL    BOND      LENGTH    ANGLE     ANGLE     DIHED     ANGLE
                  TO      (ANGST)    WRT      (DEG)      WRT      (DEG)
--------------------------------------------------------------------------------
        S    
        S          1         B1   
        Cl         1         B2         2        A2   
        Cl         2         B3         1        A3         3        D3   
                  *Initial values for internal coordinates* 
                      Name             Value
                        B1              1.9803129346
                        B2              2.0833571817
                        A2            106.8063694274
                        B3              2.0833571817
                        A3            106.8063694274
                        D3            -85.4990386241
--------------------------------------------------------------------------------
   Rotational constants (in cm-1): 
          0.0404658665             0.0457790215             0.1775621090
   Rotational constants (in MHz): 
       1213.1363285675          1372.4207314255          5323.1788566227
********************************************************************************
   The full molecular point group is C2  .
   The largest Abelian subgroup of the full molecular point group is C2  .
   The computational point group is C2  .
********************************************************************************
--------------------------------------------------------------------------------
   Analysis of internal coordinates specified by Z-matrix 
--------------------------------------------------------------------------------
   *The nuclear repulsion energy is  331.389221589788917 a.u.
  *WARNING* Parameters B2    and B3    appear to be equivalent.
  *WARNING* Parameters A3    and A2    appear to be equivalent.
   *There are   4 degrees of freedom within the tot. symm. molecular subspace.
   *Z-matrix requests optimization of   6 coordinates.
   *The following   4 parameters can have non-zero 
    derivatives within the totally symmetric subspace:
             D3   [ 6]  B2   [ 2]  A3   [ 5]  B1   [ 1]
   *The following   6 parameters are to be optimized:
             B1   [ 1]  B2   [ 2]  A2   [ 3]  B3   [ 4]  A3   [ 5]  D3   [ 6]

--------------------------------------------------------------------------------


 ----------------------------------------------------------------
         Coordinates used in calculation (QCOMP) 
 ----------------------------------------------------------------
 Z-matrix   Atomic            Coordinates (in bohr)
  Symbol    Number           X              Y              Z
 ----------------------------------------------------------------
     S        16        -1.06845468     1.53607068     1.44572240
     S        16         1.06845468    -1.53607068     1.44572240
     CL       17         0.38169030     3.93138486    -1.32182600
     CL       17        -0.38169030    -3.93138486    -1.32182600
 ----------------------------------------------------------------

   Interatomic distance matrix (Angstroms) 

                 S             S             CL            CL   
                [ 1]        [ 2]        [ 3]        [ 4]
  S    [ 1]     0.00000
  S    [ 2]     1.98031     0.00000
  CL   [ 3]     2.08336     3.26310     0.00000
  CL   [ 4]     3.26310     2.08336     4.18036     0.00000
 rotcon2
   Rotational constants (in cm-1): 
          0.0404658665             0.1775621090             0.0457790215
   Rotational constants (in MHz): 
       1213.1363285675          5323.1788566227          1372.4207314255
  ECPDATA file not present.   Using default ECPDATA. 
  There are  20 frozen-core orbitals.
  There are  200 basis functions.
 @CHECKOUT-I, Total execution time (CPU/WALL):        1.08/       0.32 seconds.
--executable xjoda finished with status     0 in        0.36 seconds (walltime).
 --invoking executable--
/usr/local/cfour/bin/xvmol
 SERIAL VERSION OF MOLECULE STARTED
********************************************************************************
                    INPUT FROM MOL FILE
********************************************************************************
INTGRL        1    0    1    0    0    0    0    0    0                         
         *** CFOUR Program System (Release V0.1) ***                            
ZMAT Geometry optimization S2Cl2                                                
    2    1 XY         0.10E-08              0    0                              
   9999.00      3.00                                                            
         16.00000000    1    4    1    1    1    1                              
S #1  -1.068454675328439   1.536070679491539   1.445722403140131                
   16    6                                                                      
   374100.00000000000        5.4214000000000000E-005  -1.4983700000000000E-005  
   56050.000000000000        4.2085499999999998E-004  -1.1619800000000000E-004  
   12760.000000000000        2.2069799999999999E-003  -6.1158299999999996E-004  
   3615.0000000000000        9.1925800000000005E-003  -2.5536999999999999E-003  
   1183.0000000000000        3.2112300000000003E-002  -9.0870800000000009E-003  
   428.80000000000001        9.4668299999999997E-002  -2.7704500000000000E-002  
   167.80000000000001       0.22363000000000000       -7.2001999999999997E-002  
   69.469999999999999       0.37439299999999998      -0.14643900000000001       
   29.840000000000000       0.32910800000000001      -0.19514999999999999       
   12.720000000000001        8.4703799999999996E-002   8.1919300000000000E-003  
   5.2439999999999998        4.4085100000000002E-004  0.51660099999999998       
   2.2189999999999999        1.6482700000000001E-003  0.54217800000000005       
  0.77669999999999995       -6.2233199999999996E-004   6.8843000000000001E-002  
  0.34899999999999998        3.0130599999999999E-004  -9.1807199999999999E-003  
  0.13220000000000001       -8.4128999999999994E-005   2.2683199999999999E-003  
   4.9700000000000001E-002   0.0000000000000000        0.0000000000000000       
   10    5                                                                      
   574.39999999999998        2.4226400000000002E-003   0.0000000000000000       
   135.80000000000001        1.9279600000000001E-002   0.0000000000000000       
   43.189999999999998        8.8540099999999997E-002   0.0000000000000000       
   15.869999999999999       0.25465399999999999        0.0000000000000000       
   6.2080000000000002       0.43398399999999998        0.0000000000000000      -
   2.4830000000000001       0.35495300000000002        0.0000000000000000       
  0.86880000000000002        6.1894100000000001E-002   1.0000000000000000       
  0.32290000000000002       -5.0297700000000002E-003   0.0000000000000000       
  0.10979999999999999        2.0981300000000001E-003   0.0000000000000000       
   3.5099999999999999E-002   0.0000000000000000        0.0000000000000000       
    3    3                                                                      
  0.81899999999999995        1.0000000000000000        0.0000000000000000       
  0.26900000000000002        0.0000000000000000        1.0000000000000000       
  0.10100000000000001        0.0000000000000000        0.0000000000000000       
    2    2                                                                      
  0.55700000000000005        1.0000000000000000        0.0000000000000000       
  0.21800000000000000        0.0000000000000000        1.0000000000000000       
         17.00000000    1    4    1    1    1    1                              
CL#2   0.381690299983913   3.931384858647653  -1.321826004832345                
   16    6                                                                      
   456100.00000000000        4.9296999999999999E-005  -1.3830400000000001E-005  
   68330.000000000000        3.8302900000000001E-004  -1.0727900000000000E-004  
   15550.000000000000        2.0085400000000001E-003  -5.6508299999999997E-004  

OMP_NUM_THREADS not specified; defaulting to 1
Running with 1 threads/proc

   4405.0000000000000        8.3855800000000001E-003  -2.3613499999999999E-003  
   1439.0000000000000        2.9470300000000001E-002  -8.4588600000000003E-003  
   520.39999999999998        8.7832499999999994E-002  -2.5963799999999999E-002  
   203.09999999999999       0.21147299999999999       -6.8636199999999994E-002  
   83.959999999999994       0.36536400000000002      -0.14187400000000000       
   36.200000000000003       0.34088400000000002      -0.19931900000000000       
   15.830000000000000       0.10213300000000000       -1.9566199999999999E-002  
   6.3339999999999996        3.1167500000000002E-003  0.49974099999999999       
   2.6940000000000000        1.0575100000000000E-003  0.56373600000000001       
  0.97680000000000000       -3.7800000000000003E-004   7.9032500000000006E-002  
  0.43130000000000002        1.5613600000000000E-004  -8.3509099999999996E-003  
  0.16250000000000001       -5.1412600000000003E-005   2.3245599999999998E-003  
   5.9100000000000000E-002   0.0000000000000000        0.0000000000000000       
   10    5                                                                      
   663.29999999999995        2.4044800000000001E-003   0.0000000000000000       
   156.80000000000001        1.9214800000000001E-002   0.0000000000000000       
   49.979999999999997        8.8509699999999997E-002   0.0000000000000000       
   18.420000000000002       0.25602000000000003        0.0000000000000000       
   7.2400000000000002       0.43692700000000001        0.0000000000000000      -
   2.9220000000000002       0.35033399999999998        0.0000000000000000       
   1.0220000000000000        5.8549499999999997E-002   1.0000000000000000       
  0.38179999999999997       -4.5842299999999999E-003   0.0000000000000000       
  0.13009999999999999        2.2696999999999999E-003   0.0000000000000000       
   4.1900000000000000E-002   0.0000000000000000        0.0000000000000000       
    3    3                                                                      
   1.0460000000000000        1.0000000000000000        0.0000000000000000       
  0.34399999999999997        0.0000000000000000        1.0000000000000000       
  0.13500000000000001        0.0000000000000000        0.0000000000000000       
    2    2                                                                      
  0.70599999999999996        1.0000000000000000        0.0000000000000000       
  0.31200000000000000        0.0000000000000000        1.0000000000000000       
FINISH                                                                          

********************************************************************************
 ONE- AND TWO-ELECTRON INTEGRALS OVER SYMMETRY-ADAPTED AOS ARE CALCULATED.

  SPHERICAL HARMONICS ARE USED.
  
  INTEGRALS LESS THAN  0.10E-13 ARE NEGLECTED.

  NUCLEAR REPULSION ENERGY :  331.3892215898 A.U.
  @MOLECU-I, ONE ELECTRON INTEGRALS (CPU/WALL):        0.38/       0.05 SECONDS.
  @TWOEL-I,   23905322 INTEGRALS OF SYMMETRY TYPE  I I I I
  @TWOEL-I,   46912730 INTEGRALS OF SYMMETRY TYPE  I J I J
  @TWOEL-I,   23900266 INTEGRALS OF SYMMETRY TYPE  I I J J
  @TWOEL-I, TOTAL NUMBER OF 2-E INTEGRALS   94718318.
  @MOLECU-I, TWO ELECTRON INTEGRALS (CPU/WALL):      376.12/      49.46 SECONDS.
 @CHECKOUT-I, Total execution time (CPU/WALL):      376.58/      49.52 seconds.
--executable xvmol finished with status     0 in       49.53 seconds (walltime).
 --invoking executable--
/usr/local/cfour/bin/xvmol2ja
 @GETMEM-I,  Allocated    9536 MB of main memory.
 @CHECKOUT-I, Total execution time (CPU/WALL):        0.12/       0.02 seconds.
--executable xvmol2ja finished with status     0 in        0.02 seconds (walltime).
 --invoking executable--
/usr/local/cfour/bin/xvscf
  There are  200 functions in the AO basis.

  There are 2 irreducible representations.

       Irrep        # of functions
         1                100
         2                100


  Parameters for SCF calculation: 
        SCF reference function:  RHF  
  Maximum number of iterations:  150
     Full symmetry point group: C2  
     Computational point group: C2  
        Initial density matrix: MOREAD                 
     SCF convergence tolerance: 10**(- 9)
  DIIS convergence acceleration:  ON
          Latest start for DIIS:   8
                     DIIS order:   6

  Memory information:    1952628 words required.
  Fock matrices are constructed from AO integral file.
 @GETMEM-I,  Allocated      14 MB of main memory.
  Initialization and symmetry analysis required      0.016 seconds.

  @INITGES-I, Occupancies from core Hamiltonian:

          Alpha population by irrep:  16   17
           Beta population by irrep:  16   17


 total no. of electrons in initial guess :   0.0000000000000000     
  --------------------------------------------------------------------
  Iteration         Total Energy            Largest Density Difference
  --------------------------------------------------------------------
       0           331.389221589788974              0.0000000000D+00
   current occupation vector 
    16 17
    16 17
       1         -1654.585217292731386              0.3703261771D+02
   current occupation vector 
    16 17
    16 17
       2         -1678.737840833557584              0.9025339310D+02
   current occupation vector 
    16 17
    16 17
       3         -1668.567796381370727              0.9443666088D+02
   current occupation vector 
    17 16
    17 16
       4         -1672.466247407838182              0.2300173240D+01
   current occupation vector 
    17 16
    17 16
       5         -1659.814831177287488              0.2496487379D+01
   current occupation vector 
    17 16
    17 16
       6         -1669.194844577005824              0.2189317777D+01
   current occupation vector 
    17 16
    17 16
       7         -1659.036674678076906              0.2210186071D+01
   current occupation vector 
    17 16
    17 16
       8         -1669.119375059942058              0.2210409967D+01
   current occupation vector 
    17 16
    17 16
       9         -1712.866609117409780              0.1182381661D+01
   current occupation vector 
    17 16
    17 16
      10         -1714.046369968990348              0.3058330234D+00
   current occupation vector 
    17 16
    17 16
      11         -1714.117352789430925              0.8645772120D-01
   current occupation vector 
    17 16
    17 16
      12         -1714.121185647768925              0.1738043176D-01
   current occupation vector 
    17 16
    17 16
      13         -1714.121719880760566              0.7890355814D-02
   current occupation vector 
    17 16
    17 16
      14         -1714.121806605388201              0.5452474946D-02
   current occupation vector 
    17 16
    17 16
      15         -1714.121819080920659              0.1229267385D-02
   current occupation vector 
    17 16
    17 16
      16         -1714.121825718921400              0.1652433738D-02
   current occupation vector 
    17 16
    17 16
      17         -1714.121826385938675              0.4735589390D-03
   current occupation vector 
    17 16
    17 16
      18         -1714.121826445793204              0.1436996214D-03
   current occupation vector 
    17 16
    17 16
      19         -1714.121826452345658              0.5386996563D-04
   current occupation vector 
    17 16
    17 16
      20         -1714.121826453136237              0.1957614622D-04
   current occupation vector 
    17 16
    17 16
      21         -1714.121826453268113              0.6739042393D-05
   current occupation vector 
    17 16
    17 16
      22         -1714.121826453290169              0.1695725483D-05
   current occupation vector 
    17 16
    17 16
      23         -1714.121826453280846              0.1006670192D-05
   current occupation vector 
    17 16
    17 16
      24         -1714.121826453286303              0.3930349513D-06
   current occupation vector 
    17 16
    17 16
      25         -1714.121826453269250              0.2015395889D-06
   current occupation vector 
    17 16
    17 16
      26         -1714.121826453275844              0.7831324134D-07
   current occupation vector 
    17 16
    17 16
      27         -1714.121826453281301              0.1832013741D-07
   current occupation vector 
    17 16
    17 16
      28         -1714.121826453273798              0.9542465790D-08
   current occupation vector 
    17 16
    17 16
      29         -1714.121826453268113              0.4433167500D-08
   current occupation vector 
    17 16
    17 16
      30         -1714.121826453272206              0.1443390518D-08
   current occupation vector 
    17 16
    17 16

  SCF has converged.

 Density matrix saved to file den.dat
 total electron number:   66.000000000000085     
     E(SCF)=     -1714.121826453272206              0.5206570730D-09


  Final occupancies:

     Alpha population by irrep:  17   16
      Beta population by irrep:  17   16


  Eigenvector printing suppressed.

 @PUTMOS-I, Writing converged MOs to NEWMOS. 
 @PUTMOS-I, Symmetry   1 Full Blocks 25 Partial Blocksize   0
 @PUTMOS-I, Symmetry   2 Full Blocks 25 Partial Blocksize   0
 @PUTFOCK-I, Writing converged Fock matrix to NEWFOCK. 
 @PUTFOCK-I, Symmetry   1 Full Blocks 25 Partial Blocksize   0
 @PUTFOCK-I, Symmetry   2 Full Blocks 25 Partial Blocksize   0



  ORBITAL EIGENVALUES (ALPHA)  (1H = 27.2113834 eV)

       MO #        E(hartree)               E(eV)           FULLSYM    COMPSYM
       ----   --------------------   --------------------   -------   ---------
    1     1        -104.8698905096       -2853.6547977726       E         A (1)
    2   101        -104.8698905065       -2853.6547976897       E         B (2)
    3     2         -92.0692429935       -2505.3314704447       E         A (1)
    4   102         -92.0692397976       -2505.3313834800       E         B (2)
    5     3         -10.5925766427        -288.2386642173       E         A (1)
    6   103         -10.5925766182        -288.2386635526       E         B (2)
    7     4          -9.0634526684        -246.6290854872       A         A (1)
    8   104          -9.0631819753        -246.6217195527       B         B (2)
    9   105          -8.0592332072        -219.3028847118       E         B (2)
   10     5          -8.0592330331        -219.3028799731       E         A (1)
   11   106          -8.0571715681        -219.2467846581       E         B (2)
   12     6          -8.0571714203        -219.2467806386       E         A (1)
   13   107          -8.0569813696        -219.2416090944       E         B (2)
   14     7          -8.0569810119        -219.2415993619       E         A (1)
   15     8          -6.7437987146        -183.5080923956       A         A (1)
   16   108          -6.7434776740        -183.4993564378       B         B (2)
   17     9          -6.7424324892        -183.4709155115       A         A (1)
   18   109          -6.7421300883        -183.4626867666       B         B (2)
   19   110          -6.7409787007        -183.4313559165       E         B (2)
   20    10          -6.7409748117        -183.4312500921       E         A (1)
   21    11          -1.1804402998         -32.1214135783       A         A (1)
   22   111          -1.1338526731         -30.8536998079       B         B (2)
   23    12          -1.0283430055         -27.9826357903       A         A (1)
   24   112          -0.8457388690         -23.0137246218       B         B (2)
   25    13          -0.6127604053         -16.6740583211       A         A (1)
   26   113          -0.5755885683         -15.6625612140       B         B (2)
   27    14          -0.5687576420         -15.4766822589       A         A (1)
   28    15          -0.5123141021         -13.9407754526       A         A (1)
   29   114          -0.5115162671         -13.9190652607       B         B (2)
   30   115          -0.4902791709         -13.3411744932       B         B (2)
   31    16          -0.4508878362         -12.2692817824       A         A (1)
   32   116          -0.4034416448         -10.9782052775       B         B (2)
   33    17          -0.3957056523         -10.7676982188       A         A (1)
  +++++++++++++++++++++++++++++++++++++++++++++++++++++++++++++++++++++++++++++
   34   117           0.0306735507           0.8346697484       B         B (2)
   35    18           0.0338063152           0.9199166049       A         A (1)
   36   118           0.0562542879           1.5307569961       B         B (2)
   37    19           0.0712538562           1.9389160001       A         A (1)
   38    20           0.0821645868           2.2358120728       A         A (1)
   39   119           0.0831359684           2.2622447095       B         B (2)
   40    21           0.1090510279           2.9674293295       A         A (1)
   41   120           0.1101432660           2.9971506409       B         B (2)
   42   121           0.1169064947           3.1811874498       B         B (2)
   43    22           0.1185217190           3.2251399376       A         A (1)
   44   122           0.1190698747           3.2400560113       B         B (2)
   45    23           0.1275370885           3.4704606138       A         A (1)
   46    24           0.1470205714           4.0006331361       A         A (1)
   47   123           0.1560450254           4.2462010136       B         B (2)
   48    25           0.1666713570           4.5353581969       A         A (1)
   49   124           0.1673473769           4.5537536329       B         B (2)
   50   125           0.2075964093           5.6489854857       B         B (2)
   51   126           0.2479237639           6.7463485942       B         B (2)
   52    26           0.2482019311           6.7539179074       A         A (1)
   53    27           0.2593937952           7.0584640131       A         A (1)
   54   127           0.2714501665           7.3865345544       B         B (2)
   55    28           0.2837587047           7.7214669060       A         A (1)
   56    29           0.3025858621           8.2337799055       A         A (1)
   57   128           0.3178276346           8.6485296192       B         B (2)
   58   129           0.3373586808           9.1799964069       B         B (2)
   59    30           0.3574898862           9.7277943556       A         A (1)
   60   130           0.3591605549           9.7732555609       B         B (2)
   61    31           0.3750198618          10.2048092431       A         A (1)
   62    32           0.3763211603          10.2402193749       A         A (1)
   63   131           0.3984110195          10.8413150024       B         B (2)
   64    33           0.4165628053          11.3352502052       A         A (1)
   65   132           0.4309504009          11.7267565863       B         B (2)
   66   133           0.4339983043          11.8096942538       B         B (2)
   67    34           0.4558093557          12.4032031365       A         A (1)
   68   134           0.4659976926          12.6804418757       B         B (2)
   69    35           0.4749210441          12.9232586146       A         A (1)
   70    36           0.4894997210          13.3199645834       A         A (1)
   71   135           0.4898231012          13.3287642052       B         B (2)
   72   136           0.4954463886          13.4817816348       B         B (2)
   73   137           0.5835079661          15.8780589823       B         B (2)
   74    37           0.6026824619          16.3998235396       A         A (1)
   75    38           0.6199010118          16.8683641017       A         A (1)
   76   138           0.6258679902          17.0307338395       B         B (2)
   77    39           0.6346400027          17.2694324350       A         A (1)
   78    40           0.6482613838          17.6400890591       A         A (1)
   79   139           0.6526410280          17.7592652351       B         B (2)
   80   140           0.6734123873          18.3244826561       B         B (2)
   81    41           0.6808869827          18.5278767395       A         A (1)
   82    42           0.6858286422          18.6623461294       A         A (1)
   83    43           0.6971422020          18.9702037428       A         A (1)
   84   141           0.6989079709          19.0182527576       B         B (2)
   85   142           0.7190055815          19.5651365436       B         B (2)
   86    44           0.7328651788          19.9422753595       A         A (1)
   87   143           0.7519348929          20.4611886613       B         B (2)
   88   144           0.7757713926          21.1098127938       B         B (2)
   89    45           0.7911208002          21.5274914107       A         A (1)
   90    46           0.7954163992          21.6443806020       A         A (1)
   91   145           0.8000530854          21.7705512468       B         B (2)
   92   146           0.8180303215          22.2597367105       B         B (2)
   93    47           0.8287931449          22.5526080240       A         A (1)
   94    48           0.8718401406          23.7239763301       A         A (1)
   95   147           0.8722548545          23.7352612696       B         B (2)
   96    49           0.8943404789          24.3362416616       A         A (1)
   97    50           0.9073104900          24.6891736073       A         A (1)
   98   148           0.9249823196          25.1700485357       B         B (2)
   99    51           0.9489411059          25.8220002556       A         A (1)
  100   149           0.9506621518          25.8688322971       B         B (2)
  101   150           0.9709334861          26.4204433475       B         B (2)
  102    52           0.9712889501          26.4301160134       A         A (1)
  103   151           0.9878598678          26.8810336081       B         B (2)
  104    53           1.0045518221          27.3352447771       A         A (1)
  105   152           1.0074314840          27.4136043604       B         B (2)
  106    54           1.0417834937          28.3483700660       A         A (1)
  107   153           1.0530787321          28.6557291291       B         B (2)
  108   154           1.0749397250          29.2505969891       B         B (2)
  109    55           1.0877147770          29.5982238258       A         A (1)
  110   155           1.1114837864          30.2450114537       B         B (2)
  111    56           1.1452910546          31.1649539920       A         A (1)
  112   156           1.1525811340          31.3633271365       B         B (2)
  113    57           1.1779039831          32.0523968922       A         A (1)
  114   157           1.2192283745          33.1768907515       B         B (2)
  115   158           1.2244972973          33.3202654304       B         B (2)
  116    58           1.2300789430          33.4721497307       A         A (1)
  117    59           1.2726299557          34.6300216504       A         A (1)
  118    60           1.2920928829          35.1596348251       A         A (1)
  119   159           1.3017903390          35.4235160197       B         B (2)
  120   160           1.3258575738          36.0784187744       B         B (2)
  121    61           1.3426747227          36.5360366601       A         A (1)
  122    62           1.3536740978          36.8353448735       A         A (1)
  123   161           1.3821764208          37.6109325141       B         B (2)
  124   162           1.4188965635          38.6101383932       B         B (2)
  125    63           1.4371417303          39.1066146229       A         A (1)
  126   163           1.4531916057          39.5433539359       B         B (2)
  127    64           1.4920583216          40.6009710430       A         A (1)
  128   164           1.4942978158          40.6619107786       B         B (2)
  129    65           1.5828424627          43.0713331149       A         A (1)
  130    66           1.6040836990          43.6493365392       A         A (1)
  131   165           1.6046638627          43.6651235956       B         B (2)
  132    67           1.6166180243          43.9904128711       A         A (1)
  133   166           1.6288246310          44.3225715254       B         B (2)
  134   167           1.6532321002          44.9867325267       B         B (2)
  135    68           1.8384409629          50.0265219004       A         A (1)
  136   168           1.8426762892          50.1417709863       B         B (2)
  137   169           2.0246746030          55.0941968820       B         B (2)
  138    69           2.0546293901          55.9093080788       A         A (1)
  139    70           2.0772378482          56.5245155007       A         A (1)
  140   170           2.1148825279          57.5488793135       B         B (2)
  141   171           2.1480663796          58.4518578238       B         B (2)
  142    71           2.1719411627          59.1015237005       A         A (1)
  143   172           2.1729107186          59.1279066585       B         B (2)
  144    72           2.2095710044          60.1254837507       A         A (1)
  145   173           2.2179454514          60.3533640384       B         B (2)
  146    73           2.2363665223          60.8546268618       A         A (1)
  147   174           2.2722631985          61.8314250796       B         B (2)
  148    74           2.2782173971          61.9934470615       A         A (1)
  149    75           2.3120968295          62.9153532857       A         A (1)
  150   175           2.3410064964          63.7020253159       B         B (2)
  151    76           2.3599597948          64.2177707861       A         A (1)
  152    77           2.3832887720          64.8525845275       A         A (1)
  153   176           2.3872863947          64.9613653706       B         B (2)
  154   177           2.4137783870          65.6822491303       B         B (2)
  155    78           2.4516761158          66.7134987606       A         A (1)
  156    79           2.4830025124          67.5659333481       A         A (1)
  157   178           2.4903410145          67.7656241422       B         B (2)
  158    80           2.4961752150          67.9243808082       A         A (1)
  159   179           2.5014126346          68.0668982404       B         B (2)
  160    81           2.5306003148          68.8611353988       A         A (1)
  161   180           2.5523964789          69.4542391771       B         B (2)
  162   181           2.5638997477          69.7672590327       B         B (2)
  163    82           2.5908571883          70.5008082860       A         A (1)
  164   182           2.6184639723          71.2520270706       B         B (2)
  165    83           2.6232860164          71.3832415596       A         A (1)
  166   183           2.6441573463          71.9511793207       B         B (2)
  167    84           2.6576409955          72.3180880669       A         A (1)
  168   184           2.6635049075          72.4776532250       B         B (2)
  169    85           2.6874184750          73.1283744794       A         A (1)
  170   185           2.7156363335          73.8962214461       B         B (2)
  171    86           2.7486491508          74.7945458735       A         A (1)
  172   186           2.7517908501          74.8800358599       B         B (2)
  173    87           2.8048324617          76.3233714888       A         A (1)
  174   187           2.8224095073          76.8016672152       B         B (2)
  175    88           2.8270545829          76.9280661471       A         A (1)
  176   188           2.8327669458          77.0835074439       B         B (2)
  177    89           2.8727422017          78.1712894603       A         A (1)
  178   189           2.9580337991          80.4921918178       B         B (2)
  179    90           2.9681718134          80.7680612103       A         A (1)
  180    91           3.0652893600          83.4107640080       A         A (1)
  181   190           3.0807838882          83.8323915546       B         B (2)
  182    92           3.0853883675          83.9576858068       A         A (1)
  183   191           3.0929330481          84.1629870029       B         B (2)
  184    93           3.1445323577          85.5670755994       A         A (1)
  185   192           3.1477638217          85.6550082053       B         B (2)
  186    94           3.1689123809          86.2304897570       A         A (1)
  187   193           3.1717547270          86.3078339269       B         B (2)
  188    95           3.2022584945          87.1378836394       A         A (1)
  189   194           3.2032050745          87.1636413918       B         B (2)
  190    96           3.2655953985          88.8613684189       A         A (1)
  191   195           3.2732520571          89.0697166915       B         B (2)
  192   196           3.3175772795          90.2758673119       B         B (2)
  193    97           3.3616880266          91.4761817639       A         A (1)
  194   197           3.9661872342         107.9254414647       B         B (2)
  195    98           4.0393411423         109.9160605064       A         A (1)
  196   198           4.0477085560         110.1437494076       B         B (2)
  197    99           5.3556354729         145.7342502029       A         A (1)
  198   199           5.9987432585         163.2341027249       B         B (2)
  199   200           6.7143265922         182.7061151744       B         B (2)
  200   100           6.8022309531         185.0981144401       A         A (1)


  VSCF finished.

 @CHECKOUT-I, Total execution time (CPU/WALL):       57.85/      25.12 seconds.
--executable xvscf finished with status     0 in       25.13 seconds (walltime).
 --invoking executable--
/usr/local/cfour/bin/xvtran
 @GETMEM-I,  Allocated    9536 MB of main memory.
  Partial RHF integral transformation
  Frozen-core orbitals requested within analytic derivative calculation
  Transformation of IIII integrals :
  1 pass through the AO integral file was required.
    23905322 AO integrals were read.
    13055474 MO integrals were written to HF2.
  Transformation of IIJJ integrals :
  1 pass through the AO integral file was required.
    23900266 AO integrals were read.
    13057480 MO integrals were written to HF2.
  Transformation of IJIJ integrals :
  1 pass through the AO integral file was required.
    46912730 AO integrals were read.
    25697122 MO integrals were written to HF2.
  Summary of active molecular orbitals: 
------------------------------------------------------------------------

  Index      Eigenvalue    Symmetry    Index      Eigenvalue    Symmetry
------------------------------------------------------------------------
     1      -104.8698905        1       101         2.6874185        1
     2       -92.0692430        1       102         2.7486492        1
     3       -10.5925766        1       103         2.8048325        1
     4        -9.0634527        1       104         2.8270546        1
     5        -8.0592330        1       105         2.8727422        1
     6        -8.0571714        1       106         2.9681718        1
     7        -8.0569810        1       107         3.0652894        1
     8        -6.7437987        1       108         3.0853884        1
     9        -6.7424325        1       109         3.1445324        1
    10        -6.7409748        1       110         3.1689124        1
    11        -1.1804403        1       111         3.2022585        1
    12        -1.0283430        1       112         3.2655954        1
    13        -0.6127604        1       113         3.3616880        1
    14        -0.5687576        1       114         4.0393411        1
    15        -0.5123141        1       115         5.3556355        1
    16        -0.4508878        1       116         6.8022310        1
    17        -0.3957057        1       117         0.0306736        2
    18      -104.8698905        2       118         0.0562543        2
    19       -92.0692398        2       119         0.0831360        2
    20       -10.5925766        2       120         0.1101433        2
    21        -9.0631820        2       121         0.1169065        2
    22        -8.0592332        2       122         0.1190699        2
    23        -8.0571716        2       123         0.1560450        2
    24        -8.0569814        2       124         0.1673474        2
    25        -6.7434777        2       125         0.2075964        2
    26        -6.7421301        2       126         0.2479238        2
    27        -6.7409787        2       127         0.2714502        2
    28        -1.1338527        2       128         0.3178276        2
    29        -0.8457389        2       129         0.3373587        2
    30        -0.5755886        2       130         0.3591606        2
    31        -0.5115163        2       131         0.3984110        2
    32        -0.4902792        2       132         0.4309504        2
    33        -0.4034416        2       133         0.4339983        2
    34         0.0338063        1       134         0.4659977        2
    35         0.0712539        1       135         0.4898231        2
    36         0.0821646        1       136         0.4954464        2
    37         0.1090510        1       137         0.5835080        2
    38         0.1185217        1       138         0.6258680        2
    39         0.1275371        1       139         0.6526410        2
    40         0.1470206        1       140         0.6734124        2
    41         0.1666714        1       141         0.6989080        2
    42         0.2482019        1       142         0.7190056        2
    43         0.2593938        1       143         0.7519349        2
    44         0.2837587        1       144         0.7757714        2
    45         0.3025859        1       145         0.8000531        2
    46         0.3574899        1       146         0.8180303        2
    47         0.3750199        1       147         0.8722549        2
    48         0.3763212        1       148         0.9249823        2
    49         0.4165628        1       149         0.9506622        2
    50         0.4558094        1       150         0.9709335        2
    51         0.4749210        1       151         0.9878599        2
    52         0.4894997        1       152         1.0074315        2
    53         0.6026825        1       153         1.0530787        2
    54         0.6199010        1       154         1.0749397        2
    55         0.6346400        1       155         1.1114838        2
    56         0.6482614        1       156         1.1525811        2
    57         0.6808870        1       157         1.2192284        2
    58         0.6858286        1       158         1.2244973        2
    59         0.6971422        1       159         1.3017903        2
    60         0.7328652        1       160         1.3258576        2
    61         0.7911208        1       161         1.3821764        2
    62         0.7954164        1       162         1.4188966        2
    63         0.8287931        1       163         1.4531916        2
    64         0.8718401        1       164         1.4942978        2
    65         0.8943405        1       165         1.6046639        2
    66         0.9073105        1       166         1.6288246        2
    67         0.9489411        1       167         1.6532321        2
    68         0.9712890        1       168         1.8426763        2
    69         1.0045518        1       169         2.0246746        2
    70         1.0417835        1       170         2.1148825        2
    71         1.0877148        1       171         2.1480664        2
    72         1.1452911        1       172         2.1729107        2
    73         1.1779040        1       173         2.2179455        2
    74         1.2300789        1       174         2.2722632        2
    75         1.2726300        1       175         2.3410065        2
    76         1.2920929        1       176         2.3872864        2
    77         1.3426747        1       177         2.4137784        2
    78         1.3536741        1       178         2.4903410        2
    79         1.4371417        1       179         2.5014126        2
    80         1.4920583        1       180         2.5523965        2
    81         1.5828425        1       181         2.5638997        2
    82         1.6040837        1       182         2.6184640        2
    83         1.6166180        1       183         2.6441573        2
    84         1.8384410        1       184         2.6635049        2
    85         2.0546294        1       185         2.7156363        2
    86         2.0772378        1       186         2.7517909        2
    87         2.1719412        1       187         2.8224095        2
    88         2.2095710        1       188         2.8327669        2
    89         2.2363665        1       189         2.9580338        2
    90         2.2782174        1       190         3.0807839        2
    91         2.3120968        1       191         3.0929330        2
    92         2.3599598        1       192         3.1477638        2
    93         2.3832888        1       193         3.1717547        2
    94         2.4516761        1       194         3.2032051        2
    95         2.4830025        1       195         3.2732521        2
    96         2.4961752        1       196         3.3175773        2
    97         2.5306003        1       197         3.9661872        2
    98         2.5908572        1       198         4.0477086        2
    99         2.6232860        1       199         5.9987433        2
   100         2.6576410        1       200         6.7143266        2
------------------------------------------------------------------------
  -104.86989050959329       -92.069242993530821       -10.592576642659841       -9.0634526683874324       -8.0592330330808117       -8.0571714203493094       -8.0569810119198486       -6.7437987146072746       -6.7424324891727103       -6.7409748117433068       -1.1804402997863541       -1.0283430055356875      -0.61276040530519338      -0.56875764202791712      -0.51231410206759642      -0.45088783624413148      -0.39570565232072286       -104.86989050654891       -92.069239797637238       -10.592576618231869       -9.0631819752576863       -8.0592332072260735       -8.0571715680615643       -8.0569813695824752       -6.7434776740450033       -6.7421300883449797       -6.7409787007195714       -1.1338526731392671      -0.84573886904183038      -0.57558856834906169      -0.51151626714871368      -0.49027917092881079      -0.40344164484861395        3.3806315224539106E-002   7.1253856211152974E-002   8.2164586781915100E-002  0.10905102786961025       0.11852171902529905       0.12753708853292720       0.14702057140049571       0.16667135699056104       0.24820193108418281       0.25939379521236527       0.28375870467412917       0.30258586211902694       0.35748988622134836       0.37501986183913977       0.37632116031723206       0.41656280530189577       0.45580935574498432       0.47492104405746921       0.48949972103854927       0.60268246191315578       0.61990101178441925       0.63464000272042642       0.64826138384201637       0.68088698274461101       0.68582864219081063       0.69714220199517019       0.73286517875045187       0.79112080022775189       0.79541639922732099       0.82879314485854128       0.87184014062542692       0.89434047890479573       0.90731049003780029       0.94894110586016733       0.97128895010145067        1.0045518221280771        1.0417834936672907        1.0877147769643261        1.1452910546270043        1.1779039830891092        1.2300789430159256        1.2726299556837177        1.2920928829046561        1.3426747226713358        1.3536740977850179        1.4371417302827296        1.4920583215566834        1.5828424627212532        1.6040836990006904        1.6166180243176531        1.8384409629240899        2.0546293900940995        2.0772378482117020        2.1719411627019873        2.2095710044182768        2.2363665223193152        2.2782173971180684        2.3120968295101010        2.3599597948448090        2.3832887719876199        2.4516761158332647        2.4830025124016997        2.4961752149731753        2.5306003148243503        2.5908571883196663        2.6232860163819645        2.6576409954539106        2.6874184749993142        2.7486491507635478        2.8048324617269365        2.8270545828652365        2.8727422017170494        2.9681718133544455        3.0652893600390887        3.0853883675328566        3.1445323577110429        3.1689123808762134        3.2022584944869914        3.2655953985382551        3.3616880266344533        4.0393411422971148        5.3556354728691797        6.8022309530974381        3.0673550701549611E-002   5.6254287906280606E-002   8.3135968363276760E-002  0.11014326603260996       0.11690649472074842       0.11906987467925408       0.15604502539230727       0.16734737686652287       0.20759640929096479       0.24792376392596421       0.27145016649021864       0.31782763456280544       0.33735868081196640       0.35916055487491677       0.39841101949950569       0.43095040093614168       0.43399830431914138       0.46599769255644879       0.48982310121174361       0.49544638861684537       0.58350796609270994       0.62586799021284933       0.65264102798743573       0.67341238726274022       0.69890797090518386       0.71900558145267157       0.75193489285550164       0.77577139256317040       0.80005308538792774       0.81803032147449295       0.87225485454740825       0.92498231955931676       0.95066215182259772       0.97093348614807762       0.98785986779613777        1.0074314840010281        1.0530787320843713        1.0749397250068209        1.1114837863656586        1.1525811339848686        1.2192283745302426        1.2244972973481527        1.3017903389536774        1.3258575737991616        1.3821764208459877        1.4188965634590451        1.4531916056821792        1.4942978157649152        1.6046638626825427        1.6288246309947594        1.6532321001610062        1.8426762891549311        2.0246746029809906        2.1148825279321413        2.1480663795934101        2.1729107186277714        2.2179454514019175        2.2722631984808190        2.3410064964190020        2.3872863946557374        2.4137783869638003        2.4903410144965759        2.5014126345532981        2.5523964789356959        2.5638997476590721        2.6184639723456726        2.6441573463205703        2.6635049074732318        2.7156363335098179        2.7517908501464672        2.8224095073084827        2.8327669457577027        2.9580337991132692        3.0807838882095231        3.0929330481192632        3.1477638217154489        3.1717547269921211        3.2032050745294298        3.2732520571335817        3.3175772795092469        3.9661872341523967        4.0477085559575734        5.9987432584870763        6.7143265922442712     
 @CHECKOUT-I, Total execution time (CPU/WALL):       30.14/      13.73 seconds.
--executable xvtran finished with status     0 in       13.75 seconds (walltime).
 --invoking executable--
/usr/local/cfour/bin/xintprc
 @GETMEM-I,  Allocated    9536 MB of main memory.
  @GMOIAA-I, Processing MO integrals for spin case AA.
  @GMOIAA-I, Generation of integral list completed.
                      TYPE                NUMBER
                      ----               --------
                      PPPP                     0
                      PPPH              38654112
                      PPHH               7595536
                      PHPH               3935568
                      PHHH               1545827
                      HHHH                 79033

                     TOTAL              51810076

  @FORMT2-I, Second-order MP correlation energies:
            ------------------------------------------------
            E(SCF)                  =  -1714.121826453272 a.u.
            E2(AA)                  =     -0.093884573972 a.u.
            E2(AB)                  =     -0.552537192370 a.u.
            E2(TOT)                 =     -0.740306340314 a.u.
            Total MP2 energy        =  -1714.862132793586 a.u.
            ------------------------------------------------
   Largest T2 amplitudes for spin case AB:
       _       _                 _       _                 _       _
   i   j   a   b             i   j   a   b             i   j   a   b
-----------------------------------------------------------------------------
[ 17  17 117 117]-0.01727 [ 13  13  34  34]-0.01585 [ 33  33  34  34]-0.01574
[ 30  30  34  34]-0.01461 [ 14  14 117 117]-0.01438 [ 13  13 120 120]-0.01430
[ 30  30 117 117]-0.01403 [ 33  33 117 117]-0.01346 [ 31  31 117 117]-0.01262
[ 29  29 117 117]-0.01180 [ 29  29  34  34]-0.01142 [ 13  13 117 117]-0.01108
[ 17  17  34  34]-0.01090 [ 30  13 117  34] 0.01034 [ 13  30  34 117] 0.01034
-----------------------------------------------------------------------------
   Norm of T2AB vector ( 15185561 symmetry allowed elements):  0.4676649670.
-----------------------------------------------------------------------------
 @CHECKOUT-I, Total execution time (CPU/WALL):        9.87/       4.36 seconds.
--executable xintprc finished with status     0 in        4.40 seconds (walltime).
  calling xecc 
 --invoking executable--
/usr/local/cfour/bin/xecc
 @GETMEM-I,  Allocated    9536 MB of main memory.
 CCSD(T) energy will be calculated.
 AO based algorithm is used. 
   Frozen core orbitals in analytic derivative calculation
 Largest T2 amplitudes for spin case AB:
        _       _                 _       _                 _       _
    i   j   a   b             i   j   a   b             i   j   a   b
 -----------------------------------------------------------------------------
 [ 17  17 117 117]-0.01727 [ 13  13  34  34]-0.01585 [ 33  33  34  34]-0.01574
 [ 30  30  34  34]-0.01461 [ 14  14 117 117]-0.01438 [ 13  13 120 120]-0.01430
 [ 30  30 117 117]-0.01403 [ 33  33 117 117]-0.01346 [ 31  31 117 117]-0.01262
 [ 29  29 117 117]-0.01180 [ 29  29  34  34]-0.01142 [ 13  13 117 117]-0.01108
 [ 17  17  34  34]-0.01090 [ 30  13 117  34] 0.01034 [ 13  30  34 117] 0.01034
 -----------------------------------------------------------------------------
 Norm of T2AB vector ( 15185561 symmetry allowed elements):  0.4676649670.
 -----------------------------------------------------------------------------
 The total correlation energy is -0.740306340314 a.u.
 Resorts of amplitudes and integrals (CPU/WALL):       0.86/       0.39 seconds.
 Starting iterative solution of the CC equations.
 The DIIS procedure is used to accelerate convergence.
 5 expansion vectors are used in the DIIS extrapolation.
 Convergence criterium is 10**(-9).
 Maximum number of iterations is 100.
 >>>>>>>>>>>>>>>>>>>>>>>>>>>>>>>>>>>>>>>>>>>>>>>>>>>>>>>>>>>>>>>>>>>>>>>>>>>>>>>
 Iteration Nr.   1 started:
 Generation of Intermediates required (CPU/WALL):     33.58/       5.60 seconds.
 Transformation of t(ab,ij) amplitudes required    3.8 seconds.
 Contraction of t(mu nu,ij) with AO integrals required   69.9 seconds.
 Backtransformation of t(mu nu,ij) increments required    2.2 seconds.
 Construction of Hbar required (CPU/WALL):           106.54/      74.48 seconds.
   Frozen core orbitals in analytic derivative calculation
 Amplitude changes are:
 -------------------------------------------------------------------
              Spin      RMS          Max.      Max. change for
  Amplitude   Case     Change       Change       i    j    a    b
 -------------------------------------------------------------------
     T1        AA    0.0000213634 0.0185339516   17        34
     T2        AB    0.0000000046-0.0020432991   30   17   34  117
 -------------------------------------------------------------------
 The total correlation energy is -0.765819544036 a.u.
 Convergence information after     1 iterations: 
 Largest element of residual vector :  0.18533952E-01.
 Largest element of DIIS residual   :  0.18533952E-01.
 Iteration Nr.   1 required (CPU/WALL):              146.55/      81.15 seconds.
 >>>>>>>>>>>>>>>>>>>>>>>>>>>>>>>>>>>>>>>>>>>>>>>>>>>>>>>>>>>>>>>>>>>>>>>>>>>>>>>
 Iteration Nr.   2 started:
 Generation of Intermediates required (CPU/WALL):     29.60/       4.59 seconds.
 Transformation of t(ab,ij) amplitudes required    3.6 seconds.
 Contraction of t(mu nu,ij) with AO integrals required   66.1 seconds.
 Backtransformation of t(mu nu,ij) increments required    2.0 seconds.
 Construction of Hbar required (CPU/WALL):           103.17/      70.43 seconds.
   Frozen core orbitals in analytic derivative calculation
 Amplitude changes are:
 -------------------------------------------------------------------
              Spin      RMS          Max.      Max. change for
  Amplitude   Case     Change       Change       i    j    a    b
 -------------------------------------------------------------------
     T1        AA    0.0000025949 0.0014404509   15        34
     T2        AB    0.0000000020-0.0038214032   33   33   34   34
 -------------------------------------------------------------------
 The total correlation energy is -0.785563752221 a.u.
 Convergence information after     2 iterations: 
 Largest element of residual vector : -0.38214032E-02.
 Largest element of DIIS residual   : -0.37545866E-02.
 Iteration Nr.   2 required (CPU/WALL):              141.98/      76.55 seconds.
 >>>>>>>>>>>>>>>>>>>>>>>>>>>>>>>>>>>>>>>>>>>>>>>>>>>>>>>>>>>>>>>>>>>>>>>>>>>>>>>
 Iteration Nr.   3 started:
 Generation of Intermediates required (CPU/WALL):     33.44/       5.24 seconds.
 Transformation of t(ab,ij) amplitudes required    4.5 seconds.
 Contraction of t(mu nu,ij) with AO integrals required   63.9 seconds.
 Backtransformation of t(mu nu,ij) increments required    2.0 seconds.
 Construction of Hbar required (CPU/WALL):           105.44/      69.00 seconds.
   Frozen core orbitals in analytic derivative calculation
 Amplitude changes are:
 -------------------------------------------------------------------
              Spin      RMS          Max.      Max. change for
  Amplitude   Case     Change       Change       i    j    a    b
 -------------------------------------------------------------------
     T1        AA    0.0000051575 0.0065652161   17        34
     T2        AB    0.0000000006-0.0006786078   17   17  117  117
 -------------------------------------------------------------------
 The total correlation energy is -0.786773030570 a.u.
 Convergence information after     3 iterations: 
 Largest element of residual vector :  0.65652161E-02.
 Largest element of DIIS residual   :  0.42530985E-02.
 Iteration Nr.   3 required (CPU/WALL):              150.11/      76.01 seconds.
 >>>>>>>>>>>>>>>>>>>>>>>>>>>>>>>>>>>>>>>>>>>>>>>>>>>>>>>>>>>>>>>>>>>>>>>>>>>>>>>
 Iteration Nr.   4 started:
 Generation of Intermediates required (CPU/WALL):     33.37/       5.36 seconds.
 Transformation of t(ab,ij) amplitudes required    3.2 seconds.
 Contraction of t(mu nu,ij) with AO integrals required   63.8 seconds.
 Backtransformation of t(mu nu,ij) increments required    2.0 seconds.
 Construction of Hbar required (CPU/WALL):           103.87/      68.55 seconds.
   Frozen core orbitals in analytic derivative calculation
 Amplitude changes are:
 -------------------------------------------------------------------
              Spin      RMS          Max.      Max. change for
  Amplitude   Case     Change       Change       i    j    a    b
 -------------------------------------------------------------------
     T1        AA    0.0000015492 0.0023085341   17        34
     T2        AB    0.0000000002-0.0007376995   33   33   34   34
 -------------------------------------------------------------------
 The total correlation energy is -0.789063548043 a.u.
 Convergence information after     4 iterations: 
 Largest element of residual vector :  0.23085341E-02.
 Largest element of DIIS residual   :  0.14774924E-02.
 Iteration Nr.   4 required (CPU/WALL):              151.06/      75.96 seconds.
 >>>>>>>>>>>>>>>>>>>>>>>>>>>>>>>>>>>>>>>>>>>>>>>>>>>>>>>>>>>>>>>>>>>>>>>>>>>>>>>
 Iteration Nr.   5 started:
 Generation of Intermediates required (CPU/WALL):     33.04/       5.23 seconds.
 Transformation of t(ab,ij) amplitudes required    3.2 seconds.
 Contraction of t(mu nu,ij) with AO integrals required   63.7 seconds.
 Backtransformation of t(mu nu,ij) increments required    2.0 seconds.
 Construction of Hbar required (CPU/WALL):           102.59/      68.29 seconds.
   Frozen core orbitals in analytic derivative calculation
 Amplitude changes are:
 -------------------------------------------------------------------
              Spin      RMS          Max.      Max. change for
  Amplitude   Case     Change       Change       i    j    a    b
 -------------------------------------------------------------------
     T1        AA    0.0000012995 0.0021782686   17        34
     T2        AB    0.0000000001-0.0001681304   17   17  117  117
 -------------------------------------------------------------------
 The total correlation energy is -0.789428927823 a.u.
 Convergence information after     5 iterations: 
 Largest element of residual vector :  0.21782686E-02.
 Largest element of DIIS residual   :  0.11305480E-02.
 Iteration Nr.   5 required (CPU/WALL):              152.29/      75.99 seconds.
 Largest T1 amplitudes for spin case AA:
    i       a                 i       a                 i       a    
 -----------------------------------------------------------------------------
 [ 17      34    ] 0.03318 [ 33     117    ] 0.02811 [ 13      34    ] 0.01980
 [ 32     120    ]-0.01884 [ 30     117    ]-0.01379 [ 17      36    ]-0.01372
 [ 32     118    ] 0.01189 [ 29     117    ]-0.01186 [ 33     119    ]-0.01173
 [ 33     120    ] 0.01140 [ 15      42    ]-0.00999 [ 14      43    ]-0.00990
 [ 30     120    ]-0.00961 [ 33     118    ]-0.00957 [ 32     121    ]-0.00850
 -----------------------------------------------------------------------------
 Norm of T1AA vector (     2755 symmetry allowed elements):  0.0842383784.
 -----------------------------------------------------------------------------
 Largest T2 amplitudes for spin case AB:
        _       _                 _       _                 _       _
    i   j   a   b             i   j   a   b             i   j   a   b
 -----------------------------------------------------------------------------
 [ 17  17 117 117]-0.02549 [ 33  33  34  34]-0.02263 [ 30  30  34  34]-0.01772
 [ 13  13  34  34]-0.01684 [ 33  33 117 117]-0.01660 [ 14  14 117 117]-0.01644
 [ 30  30 117 117]-0.01575 [ 13  13 120 120]-0.01574 [ 31  31 117 117]-0.01538
 [ 16  16 117 117]-0.01349 [ 17  17  34  34]-0.01328 [ 13  13 117 117]-0.01298
 [ 31  13 117  34] 0.01171 [ 13  31  34 117] 0.01171 [ 17  17 120 120]-0.01167
 -----------------------------------------------------------------------------
 Norm of T2AB vector ( 15185561 symmetry allowed elements):  0.5278156548.
 -----------------------------------------------------------------------------
 >>>>>>>>>>>>>>>>>>>>>>>>>>>>>>>>>>>>>>>>>>>>>>>>>>>>>>>>>>>>>>>>>>>>>>>>>>>>>>>
 Iteration Nr.   6 started:
 Generation of Intermediates required (CPU/WALL):     33.24/       5.28 seconds.
 Transformation of t(ab,ij) amplitudes required    3.3 seconds.
 Contraction of t(mu nu,ij) with AO integrals required   65.3 seconds.
 Backtransformation of t(mu nu,ij) increments required    2.2 seconds.
 Construction of Hbar required (CPU/WALL):           105.19/      70.10 seconds.
   Frozen core orbitals in analytic derivative calculation
 Amplitude changes are:
 -------------------------------------------------------------------
              Spin      RMS          Max.      Max. change for
  Amplitude   Case     Change       Change       i    j    a    b
 -------------------------------------------------------------------
     T1        AA    0.0000004962 0.0008621743   17        34
     T2        AB    0.0000000001 0.0001070737   33   33  117  117
 -------------------------------------------------------------------
 The total correlation energy is -0.789515844656 a.u.
 Convergence information after     6 iterations: 
 Largest element of residual vector :  0.86217430E-03.
 Largest element of DIIS residual   :  0.34253267E-03.
 Iteration Nr.   6 required (CPU/WALL):              155.83/      77.82 seconds.
 >>>>>>>>>>>>>>>>>>>>>>>>>>>>>>>>>>>>>>>>>>>>>>>>>>>>>>>>>>>>>>>>>>>>>>>>>>>>>>>
 Iteration Nr.   7 started:
 Generation of Intermediates required (CPU/WALL):     34.38/       5.47 seconds.
 Transformation of t(ab,ij) amplitudes required    4.6 seconds.
 Contraction of t(mu nu,ij) with AO integrals required   64.0 seconds.
[...]
 [ 17  17 117 117]-0.02584 [ 33  33  34  34]-0.02305 [ 30  30  34  34]-0.01773
 [ 13  13  34  34]-0.01672 [ 14  14 117 117]-0.01644 [ 33  33 117 117]-0.01627
 [ 13  13 120 120]-0.01571 [ 30  30 117 117]-0.01558 [ 31  31 117 117]-0.01539
 [ 16  16 117 117]-0.01348 [ 17  17  34  34]-0.01303 [ 13  13 117 117]-0.01291
 [ 17  17 119 117] 0.01174 [ 17  17 117 119] 0.01174 [ 17  17 120 120]-0.01173
 -----------------------------------------------------------------------------
 Norm of T2AB vector ( 15185561 symmetry allowed elements):  0.5276463926.
 -----------------------------------------------------------------------------
 >>>>>>>>>>>>>>>>>>>>>>>>>>>>>>>>>>>>>>>>>>>>>>>>>>>>>>>>>>>>>>>>>>>>>>>>>>>>>>>
 Iteration Nr.  16 started:
 Generation of Intermediates required (CPU/WALL):     33.70/       5.31 seconds.
 Transformation of t(ab,ij) amplitudes required    3.1 seconds.
 Contraction of t(mu nu,ij) with AO integrals required   64.1 seconds.
 Backtransformation of t(mu nu,ij) increments required    2.1 seconds.
 Construction of Hbar required (CPU/WALL):           103.34/      68.82 seconds.
   Frozen core orbitals in analytic derivative calculation
 Amplitude changes are:
 -------------------------------------------------------------------
              Spin      RMS          Max.      Max. change for
  Amplitude   Case     Change       Change       i    j    a    b
 -------------------------------------------------------------------
     T1        AA    0.0000000003 0.0000006459   17        34
     T2        AB    0.0000000000 0.0000000610   30   33   34   34
 -------------------------------------------------------------------
 The total correlation energy is -0.789563272286 a.u.
 Convergence information after    16 iterations: 
 Largest element of residual vector :  0.64591335E-06.
 Largest element of DIIS residual   :  0.26210628E-06.
 Iteration Nr.  16 required (CPU/WALL):              153.57/      76.50 seconds.
 >>>>>>>>>>>>>>>>>>>>>>>>>>>>>>>>>>>>>>>>>>>>>>>>>>>>>>>>>>>>>>>>>>>>>>>>>>>>>>>
 Iteration Nr.  17 started:
 Generation of Intermediates required (CPU/WALL):     33.72/       5.35 seconds.
 Transformation of t(ab,ij) amplitudes required    3.2 seconds.
 Contraction of t(mu nu,ij) with AO integrals required   63.6 seconds.
 Backtransformation of t(mu nu,ij) increments required    2.0 seconds.
 Construction of Hbar required (CPU/WALL):           103.13/      68.32 seconds.
   Frozen core orbitals in analytic derivative calculation
 Amplitude changes are:
 -------------------------------------------------------------------
              Spin      RMS          Max.      Max. change for
  Amplitude   Case     Change       Change       i    j    a    b
 -------------------------------------------------------------------
     T1        AA    0.0000000001 0.0000002778   17        34
     T2        AB    0.0000000000-0.0000000253   15   15  117  117
 -------------------------------------------------------------------
 The total correlation energy is -0.789563296496 a.u.
 Convergence information after    17 iterations: 
 Largest element of residual vector :  0.27782178E-06.
 Largest element of DIIS residual   :  0.11992355E-06.
 Iteration Nr.  17 required (CPU/WALL):              153.37/      76.03 seconds.
 >>>>>>>>>>>>>>>>>>>>>>>>>>>>>>>>>>>>>>>>>>>>>>>>>>>>>>>>>>>>>>>>>>>>>>>>>>>>>>>
 Iteration Nr.  18 started:
 Generation of Intermediates required (CPU/WALL):     33.48/       5.27 seconds.
 Transformation of t(ab,ij) amplitudes required    3.5 seconds.
 Contraction of t(mu nu,ij) with AO integrals required   64.8 seconds.
 Backtransformation of t(mu nu,ij) increments required    2.0 seconds.
 Construction of Hbar required (CPU/WALL):           101.27/      69.15 seconds.
   Frozen core orbitals in analytic derivative calculation
 Amplitude changes are:
 -------------------------------------------------------------------
              Spin      RMS          Max.      Max. change for
  Amplitude   Case     Change       Change       i    j    a    b
 -------------------------------------------------------------------
     T1        AA    0.0000000001 0.0000000681   17        34
     T2        AB    0.0000000000-0.0000000104   17   15  117  117
 -------------------------------------------------------------------
 The total correlation energy is -0.789563304219 a.u.
 Convergence information after    18 iterations: 
 Largest element of residual vector :  0.68060477E-07.
 Largest element of DIIS residual   : -0.60844115E-07.
 Iteration Nr.  18 required (CPU/WALL):              151.48/      76.76 seconds.
 >>>>>>>>>>>>>>>>>>>>>>>>>>>>>>>>>>>>>>>>>>>>>>>>>>>>>>>>>>>>>>>>>>>>>>>>>>>>>>>
 Iteration Nr.  19 started:
 Generation of Intermediates required (CPU/WALL):     33.82/       5.31 seconds.
 Transformation of t(ab,ij) amplitudes required    3.6 seconds.
 Contraction of t(mu nu,ij) with AO integrals required   64.4 seconds.
 Backtransformation of t(mu nu,ij) increments required    2.2 seconds.
 Construction of Hbar required (CPU/WALL):           103.63/      69.21 seconds.
   Frozen core orbitals in analytic derivative calculation
 Amplitude changes are:
 -------------------------------------------------------------------
              Spin      RMS          Max.      Max. change for
  Amplitude   Case     Change       Change       i    j    a    b
 -------------------------------------------------------------------
     T1        AA    0.0000000000 0.0000000525   17        34
     T2        AB    0.0000000000-0.0000000044   33   33  117  117
 -------------------------------------------------------------------
 The total correlation energy is -0.789563306560 a.u.
 Convergence information after    19 iterations: 
 Largest element of residual vector :  0.52522249E-07.
 Largest element of DIIS residual   : -0.32032250E-07.
 Iteration Nr.  19 required (CPU/WALL):              153.92/      76.89 seconds.
 >>>>>>>>>>>>>>>>>>>>>>>>>>>>>>>>>>>>>>>>>>>>>>>>>>>>>>>>>>>>>>>>>>>>>>>>>>>>>>>
 Iteration Nr.  20 started:
 Generation of Intermediates required (CPU/WALL):     33.45/       5.29 seconds.
 Transformation of t(ab,ij) amplitudes required    3.2 seconds.
 Contraction of t(mu nu,ij) with AO integrals required   64.4 seconds.
 Backtransformation of t(mu nu,ij) increments required    2.7 seconds.
 Construction of Hbar required (CPU/WALL):           103.34/      69.04 seconds.
   Frozen core orbitals in analytic derivative calculation
 Amplitude changes are:
 -------------------------------------------------------------------
              Spin      RMS          Max.      Max. change for
  Amplitude   Case     Change       Change       i    j    a    b
 -------------------------------------------------------------------
     T1        AA    0.0000000000-0.0000000324   33       117
     T2        AB    0.0000000000-0.0000000024   33   33  117  117
 -------------------------------------------------------------------
 The total correlation energy is -0.789563308284 a.u.
 Convergence information after    20 iterations: 
 Largest element of residual vector : -0.32375574E-07.
 Largest element of DIIS residual   : -0.26996945E-07.
 Iteration Nr.  20 required (CPU/WALL):              153.46/      76.66 seconds.
 Largest T1 amplitudes for spin case AA:
    i       a                 i       a                 i       a    
 -----------------------------------------------------------------------------
 [ 17      34    ] 0.03644 [ 33     117    ] 0.03045 [ 13      34    ] 0.02022
 [ 32     120    ]-0.01917 [ 17      36    ]-0.01520 [ 30     117    ]-0.01413
 [ 33     119    ]-0.01273 [ 32     118    ] 0.01212 [ 29     117    ]-0.01197
 [ 33     120    ] 0.01197 [ 33     118    ]-0.01007 [ 15      42    ]-0.00996
 [ 14      43    ]-0.00991 [ 30     120    ]-0.00969 [ 32     121    ]-0.00869
 -----------------------------------------------------------------------------
 Norm of T1AA vector (     2755 symmetry allowed elements):  0.0875260823.
 -----------------------------------------------------------------------------
 Largest T2 amplitudes for spin case AB:
        _       _                 _       _                 _       _
    i   j   a   b             i   j   a   b             i   j   a   b
 -----------------------------------------------------------------------------
 [ 17  17 117 117]-0.02584 [ 33  33  34  34]-0.02305 [ 30  30  34  34]-0.01773
 [ 13  13  34  34]-0.01672 [ 14  14 117 117]-0.01644 [ 33  33 117 117]-0.01627
 [ 13  13 120 120]-0.01571 [ 30  30 117 117]-0.01558 [ 31  31 117 117]-0.01539
 [ 16  16 117 117]-0.01348 [ 17  17  34  34]-0.01303 [ 13  13 117 117]-0.01291
 [ 17  17 119 117] 0.01174 [ 17  17 117 119] 0.01174 [ 17  17 120 120]-0.01173
 -----------------------------------------------------------------------------
 Norm of T2AB vector ( 15185561 symmetry allowed elements):  0.5276465005.
 -----------------------------------------------------------------------------
 >>>>>>>>>>>>>>>>>>>>>>>>>>>>>>>>>>>>>>>>>>>>>>>>>>>>>>>>>>>>>>>>>>>>>>>>>>>>>>>
 Iteration Nr.  21 started:
 Generation of Intermediates required (CPU/WALL):     33.71/       5.28 seconds.
 Transformation of t(ab,ij) amplitudes required    3.2 seconds.
 Contraction of t(mu nu,ij) with AO integrals required   63.8 seconds.
 Backtransformation of t(mu nu,ij) increments required    2.1 seconds.
 Construction of Hbar required (CPU/WALL):           104.25/      68.75 seconds.
   Frozen core orbitals in analytic derivative calculation
 Amplitude changes are:
 -------------------------------------------------------------------
              Spin      RMS          Max.      Max. change for
  Amplitude   Case     Change       Change       i    j    a    b
 -------------------------------------------------------------------
     T1        AA    0.0000000000 0.0000000183   17        34
     T2        AB    0.0000000000 0.0000000014   31   31  117  117
 -------------------------------------------------------------------
 The total correlation energy is -0.789563308080 a.u.
 Convergence information after    21 iterations: 
 Largest element of residual vector :  0.18289875E-07.
 Largest element of DIIS residual   :  0.12759264E-07.
 Iteration Nr.  21 required (CPU/WALL):              154.79/      76.38 seconds.
 >>>>>>>>>>>>>>>>>>>>>>>>>>>>>>>>>>>>>>>>>>>>>>>>>>>>>>>>>>>>>>>>>>>>>>>>>>>>>>>
 Iteration Nr.  22 started:
 Generation of Intermediates required (CPU/WALL):     33.34/       5.23 seconds.
 Transformation of t(ab,ij) amplitudes required    3.3 seconds.
 Contraction of t(mu nu,ij) with AO integrals required   64.3 seconds.
 Backtransformation of t(mu nu,ij) increments required    2.1 seconds.
 Construction of Hbar required (CPU/WALL):           103.28/      68.98 seconds.
   Frozen core orbitals in analytic derivative calculation
 Amplitude changes are:
 -------------------------------------------------------------------
              Spin      RMS          Max.      Max. change for
  Amplitude   Case     Change       Change       i    j    a    b
 -------------------------------------------------------------------
     T1        AA    0.0000000000 0.0000000092   17        34
     T2        AB    0.0000000000-0.0000000008   33   33   34   34
 -------------------------------------------------------------------
 The total correlation energy is -0.789563308406 a.u.
 Convergence information after    22 iterations: 
 Largest element of residual vector :  0.91895957E-08.
 Largest element of DIIS residual   :  0.74555702E-08.
 Iteration Nr.  22 required (CPU/WALL):              152.97/      76.59 seconds.
 >>>>>>>>>>>>>>>>>>>>>>>>>>>>>>>>>>>>>>>>>>>>>>>>>>>>>>>>>>>>>>>>>>>>>>>>>>>>>>>
 Iteration Nr.  23 started:
 Generation of Intermediates required (CPU/WALL):     33.83/       5.35 seconds.
 Transformation of t(ab,ij) amplitudes required    3.3 seconds.
 Contraction of t(mu nu,ij) with AO integrals required   64.5 seconds.
 Backtransformation of t(mu nu,ij) increments required    2.0 seconds.
 Construction of Hbar required (CPU/WALL):           102.87/      69.04 seconds.
   Frozen core orbitals in analytic derivative calculation
 Amplitude changes are:
 -------------------------------------------------------------------
              Spin      RMS          Max.      Max. change for
  Amplitude   Case     Change       Change       i    j    a    b
 -------------------------------------------------------------------
     T1        AA    0.0000000000 0.0000000068   17        34
     T2        AB    0.0000000000 0.0000000005   31   31  117  117
 -------------------------------------------------------------------
 The total correlation energy is -0.789563308273 a.u.
 Convergence information after    23 iterations: 
 Largest element of residual vector :  0.67856137E-08.
 Largest element of DIIS residual   :  0.35096670E-08.
 Iteration Nr.  23 required (CPU/WALL):              153.16/      76.76 seconds.
 >>>>>>>>>>>>>>>>>>>>>>>>>>>>>>>>>>>>>>>>>>>>>>>>>>>>>>>>>>>>>>>>>>>>>>>>>>>>>>>
 Iteration Nr.  24 started:
 Generation of Intermediates required (CPU/WALL):     34.04/       5.38 seconds.
 Transformation of t(ab,ij) amplitudes required    3.5 seconds.
 Contraction of t(mu nu,ij) with AO integrals required   64.5 seconds.
 Backtransformation of t(mu nu,ij) increments required    2.1 seconds.
 Construction of Hbar required (CPU/WALL):           103.04/      69.12 seconds.
   Frozen core orbitals in analytic derivative calculation
 Amplitude changes are:
 -------------------------------------------------------------------
              Spin      RMS          Max.      Max. change for
  Amplitude   Case     Change       Change       i    j    a    b
 -------------------------------------------------------------------
     T1        AA    0.0000000000 0.0000000030   17        34
     T2        AB    0.0000000000-0.0000000003   15   15  117  117
 -------------------------------------------------------------------
 The total correlation energy is -0.789563308376 a.u.
 Convergence information after    24 iterations: 
 Largest element of residual vector :  0.30399399E-08.
 Largest element of DIIS residual   :  0.16823983E-08.
 Iteration Nr.  24 required (CPU/WALL):              153.56/      76.87 seconds.
 >>>>>>>>>>>>>>>>>>>>>>>>>>>>>>>>>>>>>>>>>>>>>>>>>>>>>>>>>>>>>>>>>>>>>>>>>>>>>>>
 Iteration Nr.  25 started:
 Generation of Intermediates required (CPU/WALL):     34.02/       5.38 seconds.
 Transformation of t(ab,ij) amplitudes required    3.2 seconds.
 Contraction of t(mu nu,ij) with AO integrals required   63.7 seconds.
 Backtransformation of t(mu nu,ij) increments required    2.0 seconds.
 Construction of Hbar required (CPU/WALL):           103.33/      68.35 seconds.
   Frozen core orbitals in analytic derivative calculation
 Amplitude changes are:
 -------------------------------------------------------------------
              Spin      RMS          Max.      Max. change for
  Amplitude   Case     Change       Change       i    j    a    b
 -------------------------------------------------------------------
     T1        AA    0.0000000000 0.0000000014   17        34
     T2        AB    0.0000000000 0.0000000001   33   33  117  117
 -------------------------------------------------------------------
 The total correlation energy is -0.789563308395 a.u.
 Convergence information after    25 iterations: 
 Largest element of residual vector :  0.13759054E-08.
 Largest element of DIIS residual   :  0.64644401E-09.
 Iteration Nr.  25 required (CPU/WALL):              153.90/      76.10 seconds.
 Largest T1 amplitudes for spin case AA:
    i       a                 i       a                 i       a    
 -----------------------------------------------------------------------------
 [ 17      34    ] 0.03644 [ 33     117    ] 0.03045 [ 13      34    ] 0.02022
 [ 32     120    ]-0.01917 [ 17      36    ]-0.01520 [ 30     117    ]-0.01413
 [ 33     119    ]-0.01273 [ 32     118    ] 0.01212 [ 29     117    ]-0.01197
 [ 33     120    ] 0.01197 [ 33     118    ]-0.01007 [ 15      42    ]-0.00996
 [ 14      43    ]-0.00991 [ 30     120    ]-0.00969 [ 32     121    ]-0.00869
 -----------------------------------------------------------------------------
 Norm of T1AA vector (     2755 symmetry allowed elements):  0.0875260916.
 -----------------------------------------------------------------------------
 Largest T2 amplitudes for spin case AB:
        _       _                 _       _                 _       _
    i   j   a   b             i   j   a   b             i   j   a   b
 -----------------------------------------------------------------------------
 [ 17  17 117 117]-0.02584 [ 33  33  34  34]-0.02305 [ 30  30  34  34]-0.01773
 [ 13  13  34  34]-0.01672 [ 14  14 117 117]-0.01644 [ 33  33 117 117]-0.01627
 [ 13  13 120 120]-0.01571 [ 30  30 117 117]-0.01558 [ 31  31 117 117]-0.01539
 [ 16  16 117 117]-0.01348 [ 17  17  34  34]-0.01303 [ 13  13 117 117]-0.01291
 [ 17  17 119 117] 0.01174 [ 17  17 117 119] 0.01174 [ 17  17 120 120]-0.01173
 -----------------------------------------------------------------------------
 Norm of T2AB vector ( 15185561 symmetry allowed elements):  0.5276465007.
 -----------------------------------------------------------------------------
 >>>>>>>>>>>>>>>>>>>>>>>>>>>>>>>>>>>>>>>>>>>>>>>>>>>>>>>>>>>>>>>>>>>>>>>>>>>>>>>
 Iteration Nr.  26 started:
 Generation of Intermediates required (CPU/WALL):     33.73/       5.32 seconds.
 Transformation of t(ab,ij) amplitudes required    3.4 seconds.
 Contraction of t(mu nu,ij) with AO integrals required   63.6 seconds.
 Backtransformation of t(mu nu,ij) increments required    2.0 seconds.
 Construction of Hbar required (CPU/WALL):           103.59/      68.34 seconds.
   Frozen core orbitals in analytic derivative calculation
 Amplitude changes are:
 -------------------------------------------------------------------
              Spin      RMS          Max.      Max. change for
  Amplitude   Case     Change       Change       i    j    a    b
 -------------------------------------------------------------------
     T1        AA    0.0000000000 0.0000000006   17        34
     T2        AB    0.0000000000-0.0000000000   16   16  117  117
 -------------------------------------------------------------------
 The total correlation energy is -0.789563308429 a.u.
 Convergence information after    26 iterations: 
 Largest element of residual vector :  0.63200965E-09.
 Largest element of DIIS residual   :  0.31901245E-09.
 Amplitude equations converged in    26 iterations.
 Iteration Nr.  26 required (CPU/WALL):              153.81/      76.01 seconds.
 The total correlation energy is -0.789563308444 a.u.

 Summary of iterative solution of CC equations:
 -----------------------------------------------------------
                 Correlation           Total
  Iteration        Energy              Energy
 -----------------------------------------------------------
      0     -0.7403043983082445 -1714.862135648991   DIIS 
      1     -0.7658174169755427 -1714.887648667659   DIIS 
      2     -0.7855607243929159 -1714.907391975076   DIIS 
      3     -0.7867700688041979 -1714.908601319487   DIIS 
      4     -0.7890603402896105 -1714.910891590973   DIIS 
      5     -0.7894256650068657 -1714.911256915690   DIIS 
      6     -0.7895125634067631 -1714.911343814090   DIIS 
      7     -0.7895458270161944 -1714.911377077699   DIIS 
      8     -0.7895537504941270 -1714.911385001177   DIIS 
      9     -0.7895561163166411 -1714.911387367000   DIIS 
     10     -0.7895609698959629 -1714.911392220579   DIIS 
     11     -0.7895620507441232 -1714.911393301427   DIIS 
     12     -0.7895628307928403 -1714.911394081476   DIIS 
     13     -0.7895630954386850 -1714.911394346122   DIIS 
     14     -0.7895631774850874 -1714.911394428168   DIIS 
     15     -0.7895632576222008 -1714.911394508305   DIIS 
     16     -0.7895632722860497 -1714.911394522969   DIIS 
